! Sonnet Data File
! From: emgraph Version : 14.52
! From Emgraph Data: Resonators_Twoports
! Data File Written: 05/17/2020 11:34:06
!< HDATE 05/17/2020 11:20:47
!< MDATE 05/17/2020 11:27:32
# GHZ S MA R 50.00000
4.000000000000000 0.0014692682644 68.810909191978 0.9999845413010 -22.22808957670 0.9999845413010 -22.22808957670 0.0014734088251 65.635282460352
!< P1 F=4.0 Eeff=(6.45259103 -3.6167e-5) Z0=(49.7246154 -1.2553e-4) R=0.0 C=0.00758878 
!< P2 F=4.0 Eeff=(6.45259103 -3.6167e-5) Z0=(49.7246154 -1.2553e-4) R=0.0 C=0.00758878 
4.005000000000000 0.0014654028777 68.824985655325 0.9999844973621 -22.25623867291 0.9999844973621 -22.25623867291 0.0014695816646 65.557193796815
4.010000000000001 0.0014614469788 68.840105161405 0.9999844540195 -22.28439326158 0.9999844540195 -22.28439326158 0.0014656652270 65.478006746775
4.015000000000001 0.0014573988624 68.856299741552 0.9999844112105 -22.31255344974 0.9999844112105 -22.31255344974 0.0014616577542 65.397680406220
4.020000000000000 0.0014532567460 68.873602787661 0.9999843689255 -22.34071934612 0.9999843689255 -22.34071934612 0.0014575574816 65.316177117100
4.025000000000000 0.0014490188013 68.892049174503 0.9999843271554 -22.36889106233 0.9999843271554 -22.36889106233 0.0014533626003 65.233457613804
4.030000000000000 0.0014446831531 68.911675340826 0.9999842858910 -22.39706871293 0.9999842858910 -22.39706871293 0.0014490712552 65.149480935341
4.035000000000000 0.0014402478774 68.932519375644 0.9999842451233 -22.42525241554 0.9999842451233 -22.42525241554 0.0014446815440 65.064204331643
4.040000000000000 0.0014357110004 68.954621110264 0.9999842048433 -22.45344229096 0.9999842048433 -22.45344229096 0.0014401915156 64.977583163801
4.045000000000000 0.0014310704967 68.978022216865 0.9999841650422 -22.48163846328 0.9999841650422 -22.48163846328 0.0014355991687 64.889570797374
4.050000000000000 0.0014263242873 69.002766313469 0.9999841257112 -22.50984105995 0.9999841257112 -22.50984105995 0.0014309024499 64.800118488592
4.055000000000001 0.0014214702387 69.028899076537 0.9999840868419 -22.53805021195 0.9999840868419 -22.53805021195 0.0014260992526 64.709175262697
4.060000000000000 0.0014165061604 69.056468361085 0.9999840484256 -22.56626605388 0.9999840484256 -22.56626605388 0.0014211874148 64.616687783751
4.065000000000000 0.0014114298034 69.085524329811 0.9999840104540 -22.59448872409 0.9999840104540 -22.59448872409 0.0014161647179 64.522600215387
4.070000000000000 0.0014062388585 69.116119591010 0.9999839729187 -22.62271836482 0.9999839729187 -22.62271836482 0.0014110288845 64.426854071480
4.075000000000000 0.0014009309540 69.148309346899 0.9999839358117 -22.65095512234 0.9999839358117 -22.65095512234 0.0014057775766 64.329388056250
4.080000000000000 0.0013955036539 69.182151552500 0.9999838991247 -22.67919914708 0.9999838991247 -22.67919914708 0.0014004083940 64.230137892576
4.085000000000000 0.0013899544557 69.217707086863 0.9999838628497 -22.70745059378 0.9999838628497 -22.70745059378 0.0013949188720 64.129036137608
4.090000000000000 0.0013842807886 69.255039936469 0.9999838269789 -22.73570962167 0.9999838269789 -22.73570962167 0.0013893064796 64.026011984771
4.095000000000001 0.0013784800107 69.294217393345 0.9999837915044 -22.76397639461 0.9999837915044 -22.76397639461 0.0013835686171 63.920991050681
4.100000000000001 0.0013725494070 69.335310267959 0.9999837564185 -22.79225108127 0.9999837564185 -22.79225108127 0.0013777026144 63.813895145677
4.105000000000000 0.0013664861872 69.378393119078 0.9999837217135 -22.82053385530 0.9999837217135 -22.82053385530 0.0013717057281 63.704642026755
4.110000000000000 0.0013602874827 69.423544501665 0.9999836873819 -22.84882489552 0.9999836873819 -22.84882489552 0.0013655751400 63.593145130961
4.115000000000000 0.0013539503447 69.470847234840 0.9999836534163 -22.87712438612 0.9999836534163 -22.87712438612 0.0013593079540 63.479313287688
4.120000000000000 0.0013474717411 69.520388691291 0.9999836198090 -22.90543251686 0.9999836198090 -22.90543251686 0.0013529011940 63.363050407697
4.125000000000000 0.0013408485537 69.572261111057 0.9999835865530 -22.93374948328 0.9999835865530 -22.93374948328 0.0013463518014 63.244255146815
4.130000000000000 0.0013340775759 69.626561940990 0.9999835536408 -22.96207548690 0.9999835536408 -22.96207548690 0.0013396566323 63.122820541932
4.135000000000001 0.0013271555094 69.683394203368 0.9999835210654 -22.99041073551 0.9999835210654 -22.99041073551 0.0013328124552 62.998633616273
4.140000000000001 0.0013200789612 69.742866895620 0.9999834888195 -23.01875544336 0.9999834888195 -23.01875544336 0.0013258159476 62.871574951259
4.145000000000000 0.0013128444407 69.805095425702 0.9999834568961 -23.04710983142 0.9999834568961 -23.04710983142 0.0013186636941 62.741518221602
4.150000000000000 0.0013054483563 69.870202084862 0.9999834252881 -23.07547412769 0.9999834252881 -23.07547412769 0.0013113521827 62.608329689615
4.155000000000000 0.0012978870127 69.938316563543 0.9999833939886 -23.10384856742 0.9999833939886 -23.10384856742 0.0013038778024 62.471867654750
4.160000000000000 0.0012901566065 70.009576513820 0.9999833629906 -23.13223339346 0.9999833629906 -23.13223339346 0.0012962368399 62.331981853934
4.165000000000000 0.0012822532241 70.084128163664 0.9999833322872 -23.16062885651 0.9999833322872 -23.16062885651 0.0012884254768 62.188512806919
4.170000000000000 0.0012741728369 70.162126988844 0.9999833018716 -23.18903521548 0.9999833018716 -23.18903521548 0.0012804397864 62.041291101214
4.175000000000000 0.0012659112987 70.243738448413 0.9999832717368 -23.21745273785 0.9999832717368 -23.21745273785 0.0012722757303 61.890136609983
4.180000000000001 0.0012574643414 70.329138791445 0.9999832418760 -23.24588169995 0.9999832418760 -23.24588169995 0.0012639291558 61.734857635291
4.185000000000000 0.0012488275719 70.418515942794 0.9999832122823 -23.27432238741 0.9999832122823 -23.27432238741 0.0012553957923 61.575249968491
4.190000000000000 0.0012399964677 70.512070476557 0.9999831829489 -23.30277509552 0.9999831829489 -23.30277509552 0.0012466712485 61.411095858333
4.195000000000000 0.0012309663735 70.610016688684 0.9999831538690 -23.33124012963 0.9999831538690 -23.33124012963 0.0012377510087 61.242162875898
4.200000000000000 0.0012217324973 70.712583779319 0.9999831250355 -23.35971780560 0.9999831250355 -23.35971780560 0.0012286304304 61.068202664805
4.205000000000000 0.0012122899065 70.820017159027 0.9999830964415 -23.38820845026 0.9999830964415 -23.38820845026 0.0012193047408 60.888949562132
4.210000000000000 0.0012026335244 70.932579893572 0.9999830680801 -23.41671240189 0.9999830680801 -23.41671240189 0.0012097690340 60.704119075321
4.215000000000000 0.0011927581262 71.050554305181 0.9999830399442 -23.44523001070 0.9999830399442 -23.44523001070 0.0012000182685 60.513406196619
4.220000000000001 0.0011826583356 71.174243749488 0.9999830120265 -23.47376163939 0.9999830120265 -23.47376163939 0.0011900472644 60.316483535199
4.225000000000001 0.0011723286212 71.303974591673 0.9999829843199 -23.50230766371 0.9999829843199 -23.50230766371 0.0011798507011 60.112999243373
4.230000000000000 0.0011617632933 71.440098407459 0.9999829568170 -23.53086847304 0.9999829568170 -23.53086847304 0.0011694231156 59.902574710417
4.235000000000000 0.0011509565009 71.582994439548 0.9999829295102 -23.55944447102 0.9999829295102 -23.55944447102 0.0011587589005 59.684801993764
4.240000000000000 0.0011399022292 71.733072344140 0.9999829023920 -23.58803607621 0.9999829023920 -23.58803607621 0.0011478523037 59.459240951601
4.245000000000000 0.0011285942972 71.890775267922 0.9999828754544 -23.61664372277 0.9999828754544 -23.61664372277 0.0011366974272 59.225416036922
4.250000000000000 0.0011170263562 72.056583302307 0.9999828486895 -23.64526786124 0.9999828486895 -23.64526786124 0.0011252882279 58.982812705686
4.255000000000000 0.0011051918889 72.231017369750 0.9999828220890 -23.67390895926 0.9999828220890 -23.67390895926 0.0011136185188 58.730873384816
4.260000000000001 0.0010930842093 72.414643605143 0.9999827956443 -23.70256750244 0.9999827956443 -23.70256750244 0.0011016819714 58.468992936341
4.265000000000001 0.0010806964637 72.608078306790 0.9999827693466 -23.73124399518 0.9999827693466 -23.73124399518 0.0010894721198 58.196513544752
4.270000000000000 0.0010680216331 72.811993544379 0.9999827431869 -23.75993896166 0.9999827431869 -23.75993896166 0.0010769823655 57.912718940589
4.275000000000000 0.0010550525373 73.027123525710 0.9999827171556 -23.78865294674 0.9999827171556 -23.78865294674 0.0010642059854 57.616827859896
4.280000000000000 0.0010417818405 73.254271843702 0.9999826912429 -23.81738651706 0.9999826912429 -23.81738651706 0.0010511361416 57.307986621640
4.285000000000000 0.0010282020600 73.494319745965 0.9999826654385 -23.84614026207 0.9999826654385 -23.84614026207 0.0010377658939 56.985260683279
4.290000000000000 0.0010143055772 73.748235596644 0.9999826397315 -23.87491479527 0.9999826397315 -23.87491479527 0.0010240882164 56.647625010479
4.295000000000000 0.0010000846526 74.017085732713 0.9999826141107 -23.90371075538 0.9999826141107 -23.90371075538 0.0010100960176 56.293953067285
4.300000000000001 9.8553144466e-4 74.302046954269 0.9999825885642 -23.93252880769 0.9999825885642 -23.93252880769 9.9578216646e-4 55.923004195269
4.305000000000001 9.7063803472e-4 74.604420938924 0.9999825630795 -23.96136964542 0.9999825630795 -23.96136964542 9.8113952360e-4 55.533409108744
4.310000000000000 9.5539645759e-4 74.925650925380 0.9999825376432 -23.99023399127 0.9999825376432 -23.99023399127 9.6616098095e-4 55.123653178380
4.315000000000000 9.3979874043e-4 75.267341084649 0.9999825122413 -24.01912259891 0.9999825122413 -24.01912259891 9.5083950974e-4 54.692057112666
4.320000000000000 9.2383695130e-4 75.631279084405 0.9999824868591 -24.04803625474 0.9999824868591 -24.04803625474 9.3516821983e-4 54.236754569070
4.325000000000000 9.0750325949e-4 76.019462458927 0.9999824614806 -24.07697577965 0.9999824614806 -24.07697577965 9.1914043224e-4 53.755666131350
4.330000000000000 8.9079001052e-4 76.434129531727 0.9999824360890 -24.10594203091 0.9999824360890 -24.10594203091 9.0274976818e-4 53.246468975329
4.335000000000000 8.7368981913e-4 76.877795802767 0.9999824106664 -24.13493590428 0.9999824106664 -24.13493590428 8.8599025799e-4 52.706561404862
4.340000000000000 8.5619568468e-4 77.353296916509 0.9999823851936 -24.16395833611 0.9999823851936 -24.16395833611 8.6885647466e-4 52.133021268235
4.345000000000001 8.3830113427e-4 77.863839583449 0.9999823596501 -24.19301030572 0.9999823596501 -24.19301030572 8.5134369772e-4 51.522557058282
4.350000000000001 8.2000040042e-4 78.413062145163 0.9999823340137 -24.22209283789 0.9999823340137 -24.22209283789 8.3344811448e-4 50.871450245198
4.355000000000000 8.0128864222e-4 79.005106867662 0.9999823082610 -24.25120700549 0.9999823082610 -24.25120700549 8.1516706777e-4 50.175487087061
4.360000000000000 7.8216222087e-4 79.644706540449 0.9999822823663 -24.28035393239 0.9999822823663 -24.28035393239 7.9649936155e-4 49.429877794013
4.365000000000000 7.6261904410e-4 80.337288567602 0.9999822563025 -24.30953479649 0.9999822563025 -24.30953479649 7.7744563872e-4 48.629160488750
4.370000000000000 7.4265899801e-4 81.089100485720 0.9999822300400 -24.33875083302 0.9999822300400 -24.33875083302 7.5800884973e-4 47.767086896704
4.375000000000000 7.2228449016e-4 81.907361756512 0.9999822035470 -24.36800333809 0.9999822035470 -24.36800333809 7.3819483523e-4 46.836486124651
4.380000000000000 7.0150113539e-4 82.800447772035 0.9999821767891 -24.39729367242 0.9999821767891 -24.39729367242 7.1801305310e-4 45.829102267349
4.385000000000001 6.8031862520e-4 83.778113272285 0.9999821497290 -24.42662326550 0.9999821497290 -24.42662326550 6.9747748815e-4 44.735400970642
4.390000000000001 6.5875183432e-4 84.851763765053 0.9999821223265 -24.45599361996 0.9999821223265 -24.45599361996 6.7660779426e-4 43.544339593467
4.395000000000000 6.3682223527e-4 86.034784905867 0.9999820945379 -24.48540631629 0.9999820945379 -24.48540631629 6.5543073213e-4 42.243095470486
4.400000000000000 6.1455971352e-4 87.342940836782 0.9999820663157 -24.51486301796 0.9999820663157 -24.51486301796 6.3398198377e-4 40.816747384551
4.405000000000000 5.9200490545e-4 88.794852520299 0.9999820376086 -24.54436547696 0.9999820376086 -24.54436547696 6.1230844606e-4 39.247907432889
4.410000000000000 5.6921221780e-4 90.412564886893 0.9999820083604 -24.57391553973 0.9999820083604 -24.57391553973 5.9047113146e-4 37.516305252906
4.415000000000000 5.4625373319e-4 92.222204730803 0.9999819785103 -24.60351515367 0.9999819785103 -24.60351515367 5.6854883144e-4 35.598336144176
4.420000000000000 5.2322425878e-4 94.254715445404 0.9999819479918 -24.63316637405 0.9999819479918 -24.63316637405 5.4664272490e-4 33.466602364712
4.425000000000001 5.0024782702e-4 96.546622360573 0.9999819167326 -24.66287137168 0.9999819167326 -24.66287137168 5.2488212808e-4 31.089508034933
4.430000000000001 4.7748599053e-4 99.140721176245 0.9999818846535 -24.69263244108 0.9999818846535 -24.69263244108 5.0343156640e-4 28.431020207591
4.435000000000000 4.5514822428e-4 102.08647271842 0.9999818516683 -24.72245200944 0.9999818516683 -24.72245200944 4.8249926398e-4 25.450791203066
4.440000000000000 4.3350457202e-4 105.43970488048 0.9999818176825 -24.75233264637 0.9999818176825 -24.75233264637 4.6234692979e-4 22.104958599888
4.445000000000000 4.1290019559e-4 109.26094535230 0.9999817825927 -24.78227707447 0.9999817825927 -24.78227707447 4.4330027215e-4 18.348096975882
4.450000000000000 3.9377045995e-4 113.61135022632 0.9999817462857 -24.81228818090 0.9999817462857 -24.81228818090 4.2575887148e-4 14.136954720023
4.455000000000000 3.7665332427e-4 118.54488151645 0.9999817086371 -24.84236903001 0.9999817086371 -24.84236903001 4.1020279048e-4 9.4366632823145
4.460000000000000 3.6219300225e-4 124.09549765827 0.9999816695107 -24.87252287716 0.9999816695107 -24.87252287716 3.9719170069e-4 4.2298326617358
4.465000000000000 3.5112578711e-4 130.25938039208 0.9999816287564 -24.90275318380 0.9999816287564 -24.90275318380 3.8735094256e-4 -1.471977025128
4.470000000000001 3.4423799072e-4 136.97540898925 0.9999815862094 -24.93306363407 0.9999815862094 -24.93306363407 3.8133918658e-4 -7.616696498103
4.475000000000001 3.4229133424e-4 144.11180277399 0.9999815416879 -24.96345815300 0.9999815416879 -24.96345815300 3.7979613164e-4 -14.10457397726
4.480000000000000 3.4592577835e-4 151.46970899620 0.9999814949916 -24.99394092655 0.9999814949916 -24.99394092655 3.8327680714e-4 -20.79084105350
4.485000000000000 3.5556855245e-4 158.81002361149 0.9999814458995 -25.02451642359 0.9999814458995 -25.02451642359 3.9218872020e-4 -27.50130493381
4.490000000000000 3.7138557166e-4 165.89694668605 0.9999813941671 -25.05518942027 0.9999813941671 -25.05518942027 4.0675240400e-4 -34.05802092261
4.495000000000000 3.9329522159e-4 172.54009151862 0.9999813395239 -25.08596502691 0.9999813395239 -25.08596502691 4.2699912792e-4 -40.30633570730
4.500000000000000 4.2103382359e-4 178.61803861748 0.9999812816704 -25.11684871769 0.9999812816704 -25.11684871769 4.5280427343e-4 -46.13373080790
4.505000000000000 4.5424134074e-4 -175.9210887017 0.9999812202741 -25.14784636366 0.9999812202741 -25.14784636366 4.8394144564e-4 -51.47582610261
4.510000000000001 4.9253757355e-4 -171.0745085517 0.9999811549656 -25.17896426934 0.9999811549656 -25.17896426934 5.2013886889e-4 -56.31131807441
4.515000000000001 5.3557434471e-4 -166.8044272366 0.9999810853340 -25.21020921355 0.9999810853340 -25.21020921355 5.6112515775e-4 -60.65107172952
4.520000000000000 5.8306339922e-4 -163.0552032993 0.9999810109216 -25.24158849476 0.9999810109216 -25.24158849476 6.0665983436e-4 -64.52631091362
4.525000000000000 6.3478655985e-4 -159.7653999181 0.9999809312172 -25.27310998197 0.9999809312172 -25.27310998197 6.5654996209e-4 -67.97878194417
4.530000000000000 6.9059546934e-4 -156.8749860389 0.9999808456500 -25.30478217148 0.9999808456500 -25.30478217148 7.1065676453e-4 -71.05379225975
4.535000000000000 7.5040644136e-4 -154.3289878016 0.9999807535803 -25.33661425074 0.9999807535803 -25.33661425074 7.6889617851e-4 -73.79587916791
4.540000000000000 8.1419380460e-4 -152.0789061707 0.9999806542911 -25.36861617004 0.9999806542911 -25.36861617004 8.3123635609e-4 -76.24644995619
4.545000000000000 8.8198351607e-4 -150.0828824539 0.9999805469763 -25.40079872339 0.9999805469763 -25.40079872339 8.9769407037e-4 -78.44272854652
4.550000000000001 9.5384783037e-4 -148.3052425494 0.9999804307287 -25.43317363990 0.9999804307287 -25.43317363990 9.6833114714e-4 -80.41748960444
4.555000000000001 0.0010299012797 -146.7157875974 0.9999803045246 -25.46575368724 0.9999803045246 -25.46575368724 0.0010432514955 -82.19922465825
4.560000000000000 0.0011102979686 -145.2890283878 0.9999801672068 -25.49855278921 0.9999801672068 -25.49855278921 0.0011225989885 -83.81251682011
4.565000000000000 0.0011952300914 -144.0034598788 0.9999800174640 -25.53158615969 0.9999800174640 -25.53158615969 0.0012065562751 -85.27849294599
4.570000000000000 0.0012849275621 -142.8409160436 0.9999798538070 -25.56487045551 0.9999798538070 -25.56487045551 0.0012953445292 -86.61528133422
4.575000000000000 0.0013796586621 -141.7860159107 0.9999796745405 -25.59842395171 0.9999796745405 -25.59842395171 0.0013892241143 -87.83843896623
4.580000000000000 0.0014797316457 -140.8256974616 0.9999794777293 -25.63226674299 0.9999794777293 -25.63226674299 0.0014884961504 -88.96133300858
4.585000000000000 0.0015854972778 -139.9488300481 0.9999792611583 -25.66642097591 0.9999792611583 -25.66642097591 0.0015935049842 -89.99547264518
4.590000000000000 0.0016973523189 -139.1458941985 0.9999790222853 -25.70091111766 0.9999790222853 -25.70091111766 0.0017046415953 -90.95079311949
4.595000000000001 0.0018157440093 -138.4087179338 0.9999787581832 -25.73576426822 0.9999787581832 -25.73576426822 0.0018223479979 -91.83589651482
4.600000000000001 0.0019411756486 -137.7302598267 0.9999784654713 -25.77101052428 0.9999784654713 -25.77101052428 0.0019471227406 -92.65825471387
4.605000000000000 0.0020742134084 -137.1044304257 0.9999781402317 -25.80668340521 0.9999781402317 -25.80668340521 0.0020795276435 -93.42437998906
4.610000000000000 0.0022154945699 -136.5259450486 0.9999777779078 -25.84282035383 0.9999777779078 -25.84282035383 0.0022201959649 -94.13996825603
4.615000000000000 0.0023657374374 -135.9902021879 0.9999773731796 -25.87946332784 0.9999773731796 -25.87946332784 0.0023698422490 -94.81001943409
4.620000000000000 0.0025257532520 -135.4931828421 0.9999769198115 -25.91665950137 0.9999769198115 -25.91665950137 0.0025292741773 -95.43893873701
4.625000000000000 0.0026964605235 -135.0313669795 0.9999764104627 -25.95446210177 0.9999764104627 -25.95446210177 0.0026994068418 -96.03062213215
4.630000000000000 0.0028789023162 -134.6016640736 0.9999758364519 -25.99293141260 0.9999758364519 -25.99293141260 0.0028812799731 -96.58852868628
4.635000000000001 0.0030742671758 -134.2013552515 0.9999751874628 -26.03213598300 0.9999751874628 -26.03213598300 0.0030760788099 -97.11574207055
4.640000000000001 0.0032839145853 -133.8280450822 0.9999744511716 -26.07215409466 0.9999744511716 -26.07215409466 0.0032851594954 -97.61502312362
4.645000000000000 0.0035094061025 -133.4796214339 0.9999736127745 -26.11307555255 0.9999736127745 -26.11307555255 0.0035100801525 -98.08885506609
4.650000000000000 0.0037525436874 -133.1542221523 0.9999726543818 -26.15500388628 0.9999726543818 -26.15500388628 0.0037526391413 -98.53948271432
4.655000000000000 0.0040154172082 -132.8502075941 0.9999715542344 -26.19805907607 0.9999715542344 -26.19805907607 0.0040149224873 -98.96894684924
4.660000000000000 0.0043004637759 -132.5661382803 0.9999702856831 -26.24238095536 0.9999702856831 -26.24238095536 0.0042993631249 -99.37911475498
4.665000000000000 0.0046105424738 -132.3007571524 0.9999688158425 -26.28813349427 0.9999688158425 -26.28813349427 0.0046088155171 -99.77170784626
4.670000000000000 0.0049490293343 -132.0529761151 0.9999671037996 -26.33551024222 0.9999671037996 -26.33551024222 0.0049466504999 -100.1483272576
4.675000000000001 0.0053199392531 -131.8218667616 0.9999650981996 -26.38474131270 0.9999650981996 -26.38474131270 0.0053168770288 -100.5104782733
4.680000000000001 0.0057280841797 -131.6066554160 0.9999627339530 -26.43610244531 0.9999627339530 -26.43610244531 0.0057243001582 -100.8595945496
4.685000000000000 0.0061792808241 -131.4067229225 0.9999599276786 -26.48992690352 0.9999599276786 -26.48992690352 0.0061747284729 -101.1970632385
4.690000000000000 0.0066806269453 -131.2216100032 0.9999565713036 -26.54662130002 0.9999565713036 -26.54662130002 0.0066752500140 -101.5242524045
4.695000000000000 0.0072408741644 -131.0510295710 0.9999525229219 -26.60668695067 0.9999525229219 -26.60668695067 0.0072346046082 -101.8425425948
4.700000000000000 0.0078709390697 -130.8948882178 0.9999475934921 -26.67074914930 0.9999475934921 -26.67074914930 0.0078636943090 -102.1533651846
4.705000000000000 0.0085846163870 -130.7533204086 0.9999415270773 -26.73959801701 0.9999415270773 -26.73959801701 0.0085762956456 -102.4582513650
4.710000000000000 0.0093995939767 -130.6267410212 0.9999339708053 -26.81424664122 0.9999339708053 -26.81424664122 0.0093900733106 -102.7588976973
4.715000000000000 0.0103389299718 -130.5159254014 0.9999244279911 -26.89601568947 0.9999244279911 -26.89601568947 0.0103280553940 -103.0572576461
4.720000000000001 0.0114332576658 -130.4221322253 0.9999121827789 -26.98665971727 0.9999121827789 -26.98665971727 0.0114208354325 -103.3556745867
4.725000000000001 0.0127241738095 -130.3472954867 0.9998961747936 -27.08856128148 0.9998961747936 -27.08856128148 0.0127099563442 -103.6570827811
4.730000000000000 0.0142696239971 -130.2943326986 0.9998747822143 -27.20503949391 0.9998747822143 -27.20503949391 0.0142532888860 -103.9653235596
4.735000000000000 0.0161528077351 -130.2676575063 0.9998454284705 -27.34086029426 0.9998454284705 -27.34086029426 0.0161339252648 -104.2856650355
4.740000000000000 0.0184976142453 -130.2740712457 0.9998038283988 -27.50312108408 0.9998038283988 -27.50312108408 0.0184755950835 -104.6256999935
4.745000000000000 0.0214969528150 -130.3244024976 0.9997424423406 -27.70287470740 0.9997424423406 -27.70287470740 0.0214709592477 -104.9969911008
4.750000000000000 0.0254685712005 -130.4367413852 0.9996470278074 -27.95833012034 0.9996470278074 -27.95833012034 0.0254373565669 -105.4183102671
4.755000000000000 0.0309754583802 -130.6434224505 0.9994880711981 -28.30175957206 0.9994880711981 -28.30175957206 0.0309370516284 -105.9226260610
4.760000000000001 0.0391187428942 -131.0080277872 0.9991961947001 -28.79631383961 0.9991961947001 -28.79631383961 0.0390697563664 -106.5741109223
4.765000000000001 0.0523812367764 -131.6744255654 0.9985755341072 -29.58451355153 0.9985755341072 -29.58451355153 0.0523150888910 -107.5171833574
4.770000000000000 0.0777755888753 -133.0505143913 0.9968831460534 -31.06972353565 0.9968831460534 -31.06972353565 0.0776766757660 -109.1602590523
!< P1 F=4.77 Eeff=(6.45239269 -4.2693e-5) Z0=(49.7232081 -1.5156e-4) R=0.0 C=0.00758854 
!< P2 F=4.77 Eeff=(6.45239269 -4.2693e-5) Z0=(49.7232081 -1.5156e-4) R=0.0 C=0.00758854 
4.770100000000000 0.0785221222123 -133.0919671528 0.9968233601574 -31.11316140808 0.9968233601574 -31.11316140808 0.0784222468940 -109.2069559128
4.770200000000000 0.0792825250768 -133.1342283000 0.9967618751762 -31.15739849438 0.9967618751762 -31.15739849438 0.0791816696851 -109.2544574805
4.770300000000001 0.0800571859393 -133.1773222444 0.9966986242532 -31.20245728358 0.9966986242532 -31.20245728358 0.0799553321343 -109.3027881702
4.770400000000000 0.0808465080917 -133.2212726009 0.9966335396832 -31.24836112417 0.9966335396832 -31.24836112417 0.0807436370146 -109.3519716004
4.770500000000000 0.0816509101220 -133.2661038857 0.9965665504997 -31.29513425547 0.9965665504997 -31.29513425547 0.0815470023755 -109.4020322910
4.770600000000000 0.0824708266437 -133.3118415592 0.9964975822852 -31.34280185040 0.9964975822852 -31.34280185040 0.0823658622716 -109.4529957061
4.770700000000001 0.0833067090673 -133.3585120723 0.9964265569683 -31.39139006072 0.9964265569683 -31.39139006072 0.0832006675324 -109.5048883003
4.770800000000000 0.0841590264158 -133.4061429145 0.9963533926074 -31.44092606496 0.9963533926074 -31.44092606496 0.0840518865776 -109.5577375667
4.770900000000000 0.0850282661887 -133.4547626655 0.9962780031584 -31.49143811918 0.9962780031584 -31.49143811918 0.0849200062797 -109.6115720886
4.771000000000000 0.0859149352772 -133.5044010493 0.9962002982269 -31.54295561077 0.9962002982269 -31.54295561077 0.0858055328778 -109.6664215939
4.771100000000001 0.0868195609333 -133.5550889922 0.9961201828026 -31.59550911541 0.9961201828026 -31.59550911541 0.0867089929455 -109.7223170124
4.771200000000000 0.0877426917984 -133.6068586842 0.9960375569741 -31.64913045766 0.9960375569741 -31.64913045766 0.0876309344186 -109.7792905377
4.771300000000000 0.0886848989937 -133.6597436432 0.9959523156239 -31.70385277511 0.9959523156239 -31.70385277511 0.0885719276834 -109.8373756916
4.771400000000000 0.0896467772780 -133.7137787851 0.9958643481002 -31.75971058665 0.9958643481002 -31.75971058665 0.0895325667337 -109.8966073933
4.771500000000001 0.0906289462779 -133.7690004961 0.9957735378649 -31.81673986495 0.9957735378649 -31.81673986495 0.0905134703989 -109.9570220330
4.771600000000000 0.0916320517941 -133.8254467117 0.9956797621151 -31.87497811355 0.9956797621151 -31.87497811355 0.0915152836490 -110.0186575495
4.771700000000000 0.0926567671918 -133.8831569989 0.9955828913764 -31.93446444892 0.9955828913764 -31.93446444892 0.0925386789829 -110.0815535136
4.771800000000001 0.0937037948794 -133.9421726451 0.9954827890642 -31.99523968784 0.9954827890642 -31.99523968784 0.0935843579053 -110.1457512164
4.771900000000000 0.0947738678831 -134.0025367523 0.9953793110123 -32.05734644042 0.9953793110123 -32.05734644042 0.0946530524994 -110.2112937633
4.772000000000000 0.0958677515242 -134.0642943371 0.9952723049637 -32.12082920941 0.9952723049637 -32.12082920941 0.0957455271023 -110.2782261746
4.772100000000000 0.0969862452082 -134.1274924383 0.9951616100218 -32.18573449605 0.9951616100218 -32.18573449605 0.0968625800907 -110.3465954929
4.772200000000001 0.0981301843324 -134.1921802313 0.9950470560576 -32.25211091308 0.9950470560576 -32.25211091308 0.0980050457873 -110.4164508969
4.772300000000000 0.0993004423224 -134.2584091498 0.9949284630692 -32.32000930559 0.9949284630692 -32.32000930559 0.0991737964941 -110.4878438242
4.772400000000000 0.1004979328085 -134.3262330172 0.9948056404890 -32.38948288006 0.9948056404890 -32.38948288006 0.1003697446662 -110.5608281016
4.772500000000000 0.1017236119514 -134.3957081859 0.9946783864333 -32.46058734260 0.9946783864333 -32.46058734260 0.1015938452339 -110.6354600851
4.772600000000001 0.1029784809305 -134.4668936873 0.9945464868901 -32.53338104682 0.9945464868901 -32.53338104682 0.1028470980889 -110.7117988098
4.772700000000000 0.1042635886078 -134.5398513922 0.9944097148373 -32.60792515238 0.9944097148373 -32.60792515238 0.1041305507438 -110.7899061499
4.772800000000000 0.1055800343820 -134.6146461825 0.9942678292865 -32.68428379498 0.9942678292865 -32.68428379498 0.1054453011830 -110.8698469911
4.772900000000000 0.1069289712485 -134.6913461367 0.9941205742429 -32.76252426880 0.9941205742429 -32.76252426880 0.1067925009184 -110.9516894152
4.773000000000001 0.1083116090826 -134.7700227273 0.9939676775756 -32.84271722251 0.9939676775756 -32.84271722251 0.1081733582691 -111.0355048986
4.773100000000000 0.1097292181658 -134.8507510348 0.9938088497861 -32.92493686993 0.9938088497861 -32.92493686993 0.1095891418822 -111.1213685251
4.773200000000000 0.1111831329752 -134.9336099767 0.9936437826679 -33.00926121674 0.9936437826679 -33.00926121674 0.1110411845181 -111.2093592159
4.773300000000000 0.1126747562597 -135.0186825551 0.9934721478427 -33.09577230456 0.9934721478427 -33.09577230456 0.1125308871209 -111.2995599765
4.773400000000001 0.1142055634278 -135.1060561224 0.9932935951634 -33.18455647415 0.9932935951634 -33.18455647415 0.1140597232015 -111.3920581630
4.773500000000000 0.1157771072765 -135.1958226695 0.9931077509669 -33.27570464924 0.9931077509669 -33.27570464924 0.1156292435587 -111.4869457697
4.773600000000000 0.1173910230893 -135.2880791353 0.9929142161627 -33.36931264309 0.9929142161627 -33.36931264309 0.1172410813724 -111.5843197393
4.773700000000001 0.1190490341407 -135.3829277430 0.9927125641385 -33.46548148988 0.9927125641385 -33.46548148988 0.1188969577003 -111.6842822983
4.773800000000000 0.1207529576423 -135.4804763623 0.9925023384619 -33.56431780318 0.9925023384619 -33.56431780318 0.1205986874160 -111.7869413199
4.773900000000000 0.1225047111732 -135.5808389031 0.9922830503578 -33.66593416430 0.9922830503578 -33.66593416430 0.1223481856316 -111.8924107178
4.774000000000000 0.1243063196407 -135.6841357417 0.9920541759325 -33.77044954321 0.9920541759325 -33.77044954321 0.1241474746493 -112.0008108715
4.774100000000001 0.1261599228226 -135.7904941829 0.9918151531190 -33.87798975550 0.9918151531190 -33.87798975550 0.1259986914942 -112.1122690895
4.774200000000000 0.1280677835473 -135.9000489635 0.9915653783084 -33.98868795875 0.9915653783084 -33.98868795875 0.1279040960835 -112.2269201121
4.774300000000000 0.1300322965757 -136.0129427985 0.9913042026313 -34.10268519257 0.9913042026313 -34.10268519257 0.1298660800972 -112.3449066578
4.774400000000000 0.1320559982548 -136.1293269768 0.9910309278479 -34.22013096652 0.9910309278479 -34.22013096652 0.1318871766190 -112.4663800188
4.774500000000001 0.1341415770204 -136.2493620101 0.9907448017975 -34.34118390122 0.9907448017975 -34.34118390122 0.1339700706263 -112.5915007107
4.774600000000000 0.1362918848386 -136.3732183422 0.9904450133553 -34.46601242807 0.9904450133553 -34.46601242807 0.1361176104160 -112.7204391805