! Sonnet Data File
! From: emgraph Version : 14.52
! From Emgraph Data: Resonators_Unit_v1.1_NbN
! Data File Written: 05/17/2020 10:05:46
!< HDATE 05/16/2020 03:26:38
!< MDATE 05/16/2020 04:55:45
# GHZ S MA R 50.00000
3.000000000000000 0.0965979377674 67.949090829561 0.9952970508036 -22.45612758623 0.9952970508036 -22.45612758623 0.0966003650513 67.107572482172
!< P1 F=3.0 Eeff=(10.6478139 -2.1397e-5) Z0=(62.9273972 -4.2679e-5) R=0.0 C=0.0 
!< P2 F=3.0 Eeff=(10.6478139 -2.1397e-5) Z0=(62.9273972 -4.2679e-5) R=0.0 C=0.0 
3.010000000000000 0.0968837572711 67.879746810855 0.9952688340924 -22.53197077073 0.9952688340924 -22.53197077073 0.0968861714011 67.025007486969
3.020000000000000 0.0971684186557 67.810611381136 0.9952406581693 -22.60787781406 0.9952406581693 -22.60787781406 0.0971708172926 66.942125176495
3.030000000000000 0.0974518540394 67.741697307945 0.9952125299272 -22.68385299146 0.9952125299272 -22.68385299146 0.0974542347890 66.858903614872
3.040000000000000 0.0977339895840 67.673018558387 0.9951844569122 -22.75990096294 0.9951844569122 -22.75990096294 0.0977363499888 66.775318933054
3.050000000000000 0.0980147448167 67.604590436946 0.9951564473960 -22.83602681715 0.9951564473960 -22.83602681715 0.0980170823463 66.691345104966
3.060000000000000 0.0982940318556 67.536429742527 0.9951285104586 -22.91223612141 0.9951285104586 -22.91223612141 0.0982963438962 66.606953692030
3.070000000000000 0.0985717545247 67.468554948395 0.9951006560829 -22.98853497878 0.9951006560829 -22.98853497878 0.0985740383676 66.522113550733
3.080000000000000 0.0988478073396 67.400986409030 0.9950728952625 -23.06493009365 0.9950728952625 -23.06493009365 0.0988500601678 66.436790496859
3.090000000000000 0.0991220743405 67.333746598687 0.9950452401267 -23.14142884714 0.9950452401267 -23.14142884714 0.0991242932134 66.350946918683
3.100000000000000 0.0993944277441 67.266860387469 0.9950177040834 -23.21803938412 0.9950177040834 -23.21803938412 0.0993966095810 66.264541329835
3.110000000000000 0.0996647263843 67.200355361994 0.9949903019854 -23.29477071413 0.9949903019854 -23.29477071413 0.0996668679445 66.177527850551
3.120000000000000 0.0999328138972 67.134262199241 0.9949630503230 -23.37163282858 0.9949630503230 -23.37163282858 0.0999349117582 66.089855603571
3.130000000000000 0.1001985166040 67.068615104191 0.9949359674490 -23.44863683772 0.9949359674490 -23.44863683772 0.1002005671362 66.001468007798
3.140000000000000 0.1004616410300 67.003452324288 0.9949090738419 -23.52579513112 0.9949090738419 -23.52579513112 0.1004636403675 65.912301948961
3.150000000000000 0.1007219709843 66.938816756943 0.9948823924151 -23.60312156658 0.9948823924151 -23.60312156658 0.1007239149914 65.822286801542
3.160000000000000 0.1009792641066 66.874756670281 0.9948559488823 -23.68063169357 0.9948559488823 -23.68063169357 0.1009811483390 65.731343269838
3.170000000000000 0.1012332477656 66.811326562561 0.9948297721910 -23.75834301885 0.9948297721910 -23.75834301885 0.1012350674251 65.639382007948
3.180000000000000 0.1014836141607 66.748588192397 0.9948038950391 -23.83627532358 0.9948038950391 -23.83627532358 0.1014853640424 65.546301967788
3.190000000000000 0.1017300144407 66.686611820730 0.9947783544948 -23.91445104438 0.9947783544948 -23.91445104438 0.1017316888707 65.451988410535
3.200000000000000 0.1019720516025 66.625477717094 0.9947531927435 -23.99289573349 0.9947531927435 -23.99289573349 0.1019736443646 65.356310498609
3.210000000000000 0.1022092718623 66.565277998208 0.9947284579935 -24.07163861822 0.9947284579935 -24.07163861822 0.1022107761111 65.259118361242
3.220000000000000 0.1024411541040 66.506118887643 0.9947042055821 -24.15071328532 0.9947042055821 -24.15071328532 0.1024425622603 65.160239494242
3.230000000000000 0.1026670968829 66.448123513520 0.9946804993347 -24.23015852433 0.9946804993347 -24.23015852433 0.1026684005086 65.059474310795
3.240000000000000 0.1028864022995 66.391435399819 0.9946574132475 -24.31001937452 0.9946574132475 -24.31001937452 0.1028875919455 64.956590600143
3.250000000000000 0.1030982558270 66.336222860507 0.9946350335878 -24.39034843533 0.9946350335878 -24.39034843533 0.1030993208478 64.851316568037
3.260000000000000 0.1033017008553 66.282684581040 0.9946134615377 -24.47120752097 0.9946134615377 -24.47120752097 0.1033026291806 64.743332016566
3.270000000000000 0.1034956062645 66.231056779106 0.9945928165510 -24.55266976944 0.9945928165510 -24.55266976944 0.1034963841154 64.632257055937
3.280000000000000 0.1036786246950 66.181622491534 0.9945732406621 -24.63482235865 0.9945732406621 -24.63482235865 0.1036792362278 64.517637503013
3.290000000000000 0.1038491382428 66.134723761978 0.9945549040732 -24.71777004375 0.9945549040732 -24.71777004375 0.1038495650978 64.398925773611
3.300000000000000 0.1040051869276 66.090777844120 0.9945380124872 -24.80163982073 0.9945380124872 -24.80163982073 0.1040054076495 64.275455557985
3.310000000000000 0.1041443732015 66.050299052917 0.9945228168573 -24.88658715796 0.9945228168573 -24.88658715796 0.1041443624863 64.146407784224
3.320000000000000 0.1042637325845 66.013928701482 0.9945096265358 -24.97280444746 0.9945096265358 -24.97280444746 0.1042634602860 64.010764159943
3.330000000000000 0.1043595555298 65.982476841809 0.9944988272886 -25.06053265640 0.9944988272886 -25.06053265640 0.1043589853283 63.867242660416
3.340000000000000 0.1044271376352 65.956981618109 0.9944909064134 -25.15007768778 0.9944909064134 -25.15007768778 0.1044262252201 63.714206210694
3.350000000000000 0.1044604221657 65.938795553343 0.9944864884578 -25.24183383146 0.9944864884578 -25.24183383146 0.1044591127040 63.549530598512
3.360000000000000 0.1044514765475 65.929714183738 0.9944863871428 -25.33631816918 0.9944863871428 -25.33631816918 0.1044497010744 63.370408673046
3.370000000000000 0.1043897053533 65.932173428191 0.9944916827666 -25.43422240723 0.9944916827666 -25.43422240723 0.1043873754857 63.173051834033
3.380000000000000 0.1042606309362 65.949562687662 0.9945038409505 -25.53649338507 0.9945038409505 -25.53649338507 0.1042576308834 62.952219921874
3.390000000000000 0.1040439368367 65.986741322926 0.9945249009652 -25.64446264881 0.9945249009652 -25.64446264881 0.1040401108762 62.700452207141
3.400000000000000 0.1037101960610 66.050931117320 0.9945577862436 -25.76006391823 0.9945577862436 -25.76006391823 0.1037053280202 62.406751428896
3.410000000000000 0.1032151238362 66.153347544601 0.9946068405033 -25.88621686932 0.9946068405033 -25.88621686932 0.1032089016310 62.054205866329
3.420000000000000 0.1024888572265 66.312395831327 0.9946788062710 -26.02754730081 0.9946788062710 -26.02754730081 0.1024808073474 61.615393881140
3.430000000000000 0.1014144052569 66.560510390841 0.9947847369771 -26.19184649316 0.9947847369771 -26.19184649316 0.1014037609473 61.042713222038
3.440000000000000 0.0997799648651 66.960595903674 0.9949440677450 -26.39333754964 0.9949440677450 -26.39333754964 0.0997653689721 60.245616632794
3.450000000000000 0.0971589854560 67.652474146354 0.9951942944692 -26.66103748189 0.9951942944692 -26.66103748189 0.0971377048892 59.028026798381
3.460000000000000 0.0925489026049 69.020155143861 0.9956175835425 -27.06474653535 0.9956175835425 -27.06474653535 0.0925141816450 56.871148390697
3.470000000000000 0.0829446502082 72.610058875459 0.9964281598330 -27.82546900408 0.9964281598330 -27.82546900408 0.0828720483709 51.804904177211
3.480000000000000 0.0558173833005 95.295803140454 0.9983756755146 -30.21534049402 0.9983756755146 -30.21534049402 0.0558386504755 24.293932660077
!< P1 F=3.48 Eeff=(10.6476907 -2.5143e-5) Z0=(62.9255127 -5.0758e-5) R=0.0 C=0.0 
!< P2 F=3.48 Eeff=(10.6476907 -2.5143e-5) Z0=(62.9255127 -5.0758e-5) R=0.0 C=0.0 
3.480100000000000 0.0553953273987 96.048165149586 0.9983984547812 -30.26707425878 0.9983984547812 -30.26707425878 0.0554152914717 23.439932546083
3.480200000000000 0.0549744749842 96.831377319647 0.9984209622790 -30.32003842769 0.9984209622790 -30.32003842769 0.0549930388458 22.552668304560
3.480300000000000 0.0545555770061 97.646974413039 0.9984431570682 -30.37427796165 0.9984431570682 -30.37427796165 0.0545726365453 21.630512983426
3.480400000000000 0.0541394713465 98.496556736430 0.9984649948004 -30.42984005956 0.9984649948004 -30.42984005956 0.0541549152502 20.671768647496
3.480500000000000 0.0537270919456 99.381788004728 0.9984864272512 -30.48677427333 0.9984864272512 -30.48677427333 0.0537408012609 19.674668284217
3.480600000000000 0.0533194784234 100.30439212506 0.9985074019693 -30.54513265605 0.9985074019693 -30.54513265605 0.0533313261144 18.637378566346
3.480700000000000 0.0529177865071 101.26614837147 0.9985278618909 -30.60496992142 0.9985278618909 -30.60496992142 0.0529276370119 17.558004183535
3.480800000000000 0.0525232992859 102.26888462054 0.9985477449135 -30.66634361554 0.9985477449135 -30.66634361554 0.0525310080814 16.434594070237
3.480900000000000 0.0521374393022 103.31446827535 0.9985669834279 -30.72931430218 0.9985669834279 -30.72931430218 0.0521428524868 15.265149901019
3.481000000000000 0.0517617814698 104.40479446315 0.9985855038004 -30.79394576269 0.9985855038004 -30.79394576269 0.0517647353756 14.047637267059
3.481100000000000 0.0513980667877 105.54177105419 0.9986032258018 -30.86030521202 0.9986032258018 -30.86030521202 0.0513983876358 12.779999986751
3.481200000000000 0.0510482167849 106.72730001904 0.9986200619751 -30.92846353229 0.9986200619751 -30.92846353229 0.0510457204022 11.460178035044
3.481300000000000 0.0507143485979 107.96325462564 0.9986359169364 -30.99849552569 0.9986359169364 -30.99849552569 0.0507088402153 10.086129594105
3.481400000000000 0.0503987905384 109.25145198172 0.9986506865992 -31.07048018848 0.9986506865992 -31.07048018848 0.0503900646921 8.6558577260487
3.481500000000000 0.0501040979522 110.59362046288 0.9986642573142 -31.14450100831 0.9986642573142 -31.14450100831 0.0500919385163 7.1674421367756
3.481600000000000 0.0498330691186 111.99136164108 0.9986765049135 -31.22064628703 0.9986765049135 -31.22064628703 0.0498172494965 5.6190764285319
3.481700000000000 0.0495887608660 113.44610645557 0.9986872936470 -31.29900949175 0.9986872936470 -31.29900949175 0.0495690443717 4.0091111153616
3.481800000000000 0.0493745035177 114.95906555960 0.9986964749982 -31.37968963687 0.9986964749982 -31.37968963687 0.0493506439790 2.3361024874678
3.481900000000000 0.0491939147092 116.53117404401 0.9987038863630 -31.46279170055 0.9987038863630 -31.46279170055 0.0491656573240 0.5988671456017
3.482000000000000 0.0490509115569 118.16303109147 0.9987093495742 -31.54842707900 0.9987093495742 -31.54842707900 0.0490179940318 -1.203458324262
3.482100000000000 0.0489497206113 119.85483555572 0.9987126692511 -31.63671408289 0.9987126692511 -31.63671408289 0.0489118746048 -3.071353506846
3.482200000000000 0.0488948849982 121.60631898348 0.9987136309510 -31.72777848040 0.9987136309510 -31.72777848040 0.0488518378851 -5.004847641617
3.482300000000000 0.0488912681642 123.41667818386 0.9987119990951 -31.82175409196 0.9987119990951 -31.82175409196 0.0488427451233 -7.003452526698
3.482400000000000 0.0489440536940 125.28451006618 0.9987075146388 -31.91878344274 0.9987075146388 -31.91878344274 0.0488897801063 -9.066097563209
3.482500000000000 0.0490587407824 127.20775205952 0.9986998924494 -32.01901847926 0.9986998924494 -32.01901847926 0.0489984449068 -11.19107027044
3.482600000000000 0.0492411351197 129.18363192295 0.9986888183497 -32.12262135783 0.9986888183497 -32.12262135783 0.0491745509921 -13.37596612121
3.482700000000000 0.0494973352039 131.20863106770 0.9986739457811 -32.22976531298 0.9986739457811 -32.22976531298 0.0494242056777 -15.61765188700
3.482800000000000 0.0498337144080 133.27846554873 0.9986548920271 -32.34063561582 0.9986548920271 -32.34063561582 0.0497537942343 -17.91224674848
3.482900000000000 0.0502568995113 135.38808855641 0.9986312339352 -32.45543063310 0.9986312339352 -32.45543063310 0.0501699583312 -20.25512513012
3.483000000000000 0.0507737468118 137.53171749056 0.9986025030583 -32.57436299958 0.9986025030583 -32.57436299958 0.0506795719199 -22.64094449276
3.483100000000000 0.0513913173516 139.70288751313 0.9985681801281 -32.69766091796 0.9985681801281 -32.69766091796 0.0512897160804 -25.06370014706
3.483200000000000 0.0521168531648 141.89453189879 0.9985276887544 -32.82556960290 0.9985276887544 -32.82556960290 0.0520076547435 -27.51680757416
3.483300000000000 0.0529577567520 144.09908765027 0.9984803882289 -32.95835288778 0.9984803882289 -32.95835288778 0.0528408135066 -29.99321087228
3.483400000000000 0.0539215761656 146.30862289688 0.9984255652849 -33.09629501624 0.9984255652849 -33.09629501624 0.0537967639569 -32.48551396817
3.483500000000000 0.0550159981246 148.51498077285 0.9983624246441 -33.23970264321 0.9983624246441 -33.23970264321 0.0548832159543 -34.98612936669
3.483600000000000 0.0562488514548 150.70993300963 0.9982900781438 -33.38890707467 0.9982900781438 -33.38890707467 0.0561080202169 -37.48743769864
3.483700000000000 0.0576281228867 152.88533557125 0.9982075322017 -33.54426677983 0.9982075322017 -33.54426677983 0.0574791832877 -39.98195037408
3.483800000000000 0.0591619868719 155.03327844371 0.9981136733289 -33.70617021466 0.9981136733289 -33.70617021466 0.0590048965869 -42.46246739320
3.483900000000000 0.0608588506432 157.14622218858 0.9980072513420 -33.87503900270 0.9980072513420 -33.87503900270 0.0606935808136 -44.92222284688
3.484000000000000 0.0627274153160 159.21711501431 0.9978868598563 -34.05133152639 0.9978868598563 -34.05133152639 0.0625539465216 -47.35501178661
3.484100000000000 0.0647767534568 161.23948574268 0.9977509135575 -34.23554699181 0.9977509135575 -34.23554699181 0.0645950713065 -49.75529379713
3.484200000000000 0.0670164032932 163.20750993659 0.9975976216396 -34.42823004036 0.9975976216396 -34.42823004036 0.0668264937826 -52.11827054292
3.484300000000000 0.0694564796387 165.11604837316 0.9974249566699 -34.62997599469 0.9974249566699 -34.62997599469 0.0692583244082 -54.43993654505
3.484400000000000 0.0721078016836 166.96065878441 0.9972306179765 -34.84143684190 0.9972306179765 -34.84143684190 0.0719013732906 -56.71710426173
3.484500000000000 0.0749820380603 168.73758319281 0.9970119884539 -35.06332807665 0.9970119884539 -35.06332807665 0.0747672953513 -58.94740603305
3.484600000000000 0.0780918700245 170.44371415030 0.9967660834248 -35.29643655019 0.9967660834248 -35.29643655019 0.0778687536608 -61.12927651836
3.484700000000000 0.0814511741897 172.07654372919 0.9964894898835 -35.54162950046 0.9964894898835 -35.54162950046 0.0812196023505 -63.26191987938
3.484800000000000 0.0850752270004 173.63409924423 0.9961782940377 -35.79986497301 0.9961782940377 -35.79986497301 0.0848350912540 -65.34526618149
3.484900000000000 0.0889809340124 175.11486947935 0.9958279945583 -36.07220388636 0.9958279945583 -36.07220388636 0.0887320953227 -67.37992137466
3.485000000000000 0.0931870880843 176.51772473926 0.9954333982932 -36.35982404821 0.9954333982932 -36.35982404821 0.0929293728954 -69.36711486661
3.485100000000000 0.0977146617722 177.84183343188 0.9949884943636 -36.66403649535 0.9949884943636 -36.66403649535 0.0974478580928 -71.30864821603
3.485200000000000 0.1025871405991 179.08657719599 0.9944863014840 -36.98630461213 0.9944863014840 -36.98630461213 0.1023109939947 -73.20684793314
3.485300000000000 0.1078309054826 -179.7485341271 0.9939186819437 -37.32826658539 0.9939186819437 -37.32826658539 0.1075451148671 -75.06452485780
3.485400000000000 0.1134756745179 -178.6639470733 0.9932761138626 -37.69176188263 0.9932761138626 -37.69176188263 0.1131798876236 -76.88494213821
3.485500000000000 0.1195550166048 -177.6601487372 0.9925474109349 -38.07886260315 0.9925474109349 -38.07886260315 0.1192488249961 -78.67179349526
3.485600000000000 0.1261069521867 -176.7377512203 0.9917193757016 -38.49191075846 0.9917193757016 -38.49191075846 0.1257898856661 -80.42919325258
3.485700000000000 0.1331746597594 -175.8975775928 0.9907763681814 -38.93356280086 0.9907763681814 -38.93356280086 0.1328461799981 -82.16167955238
3.485800000000000 0.1408073109623 -175.1407511909 0.9896997660450 -39.40684305565 0.9896997660450 -39.40684305565 0.1404668041632 -83.87423227635
3.485900000000000 0.1490610621548 -174.4687906720 0.9884672849116 -39.91520814417 0.9884672849116 -39.91520814417 0.1487078305271 -85.57230746088
3.486000000000000 0.1580002365934 -173.8837139191 0.9870521170284 -40.46262504262 0.9870521170284 -40.46262504262 0.1576334883842 -87.26189045130
3.486100000000000 0.1676987388581 -173.3881546741 0.9854218324863 -41.05366614376 0.9854218324863 -41.05366614376 0.1673175766412 -88.94957071497
3.486200000000000 0.1782417521564 -172.9854967478 0.9835369677118 -41.69362562656 0.9835369677118 -41.69362562656 0.1778451590251 -90.64264215962
3.486300000000000 0.1897277795837 -172.6800318953 0.9813491990759 -42.38866266160 0.9813491990759 -42.38866266160 0.1893146028310 -92.34923404984
3.486400000000000 0.2022711020379 -172.4771490359 0.9787989619344 -43.14597857272 0.9787989619344 -43.14597857272 0.2018400338324 -94.07847925432
3.486500000000000 0.2160047373502 -172.3835645744 0.9758123227634 -43.97403715018 0.9758123227634 -43.97403715018 0.2155542918359 -95.84072870089
3.486600000000000 0.2310839951046 -172.4076062852 0.9722968377673 -44.88283999943 0.9722968377673 -44.88283999943 0.2306124812655 -97.64782370090
3.486700000000000 0.2476907249557 -172.5595667060 0.9681360261869 -45.88427226221 0.9681360261869 -45.88427226221 0.2471962145175 -99.51344137788
3.486800000000000 0.2660383437538 -172.8521464223 0.9631819374355 -46.99253839982 0.9631819374355 -46.99253839982 0.2655186333643 -101.4535329533
3.486900000000000 0.2863776805182 -173.3010130800 0.9572450802935 -48.22471303573 0.9572450802935 -48.22471303573 0.2858302475153 -103.4868801815
3.487000000000000 0.3090035641932 -173.9255082905 0.9500806865646 -49.60143792164 0.9500806865646 -49.60143792164 0.3084255155469 -105.6358016307
3.487100000000000 0.3342618333917 -174.7495410725 0.9413698743160 -51.14780210363 0.9413698743160 -51.14780210363 0.3336498480857 -107.9270470539
3.487200000000000 0.3625559522914 -175.8027110233 0.9306937361591 -52.89444611268 0.9306937361591 -52.89444611268 0.3619062188625 -110.3929227063
3.487300000000000 0.3943514592067 -177.1217020948 0.9174977173751 -54.87892724836 0.9174977173751 -54.87892724836 0.3936596130459 -113.0726882025
3.487400000000000 0.4301746787446 -178.7519676902 0.9010429819232 -57.14736023558 0.9010429819232 -57.14736023558 0.4294357492282 -116.0142453951
3.487500000000000 0.4705988676666 179.25033318060 0.8803411814061 -59.75628154742 0.8803411814061 -59.75628154742 0.4698072552014 -119.2760788195
3.487600000000000 0.5162052950011 176.81633637883 0.8540701933502 -62.77452824553 0.8540701933502 -62.77452824553 0.5153548156985 -122.9292598551
3.487700000000000 0.5674975881080 173.86291559439 0.8204734764334 -66.28458280823 0.8204734764334 -66.28458280823 0.5665816532382 -127.0590086286
3.487800000000000 0.6247348370872 170.29269941960 0.7772599712595 -70.38216129368 0.7772599712595 -70.38216129368 0.6237468792276 -131.7646819200
3.487900000000000 0.6876368038836 165.99789134282 0.7215542947532 -75.17160478271 0.7215542947532 -75.17160478271 0.6865711177350 -137.1559581850
3.488000000000000 0.7549209651317 160.87169500392 0.6500093076986 -80.75272608230 0.6500093076986 -80.75272608230 0.7537741679053 -143.3414172895
3.488100000000000 0.8237012095423 154.83244630604 0.5592795603040 -87.19238721850 0.5592795603040 -87.19238721850 0.8224744517808 -150.4044133094
3.488200000000000 0.8889801015220 147.86392940781 0.4470899409699 -94.47145461336 0.4470899409699 -94.47145461336 0.8876818006692 -158.3627633360
3.488300000000000 0.9437919750963 140.06591775522 0.3139111553174 -102.3843136220 0.3139111553174 -102.3843136220 0.9424400741768 -167.1182110984
3.488400000000000 0.9806687347533 131.68998852319 0.1645715193210 -110.1685129969 0.1645715193210 -110.1685129969 0.9792906756595 -176.4206170135
3.488500000000000 0.9943501987150 123.12207090745 0.0101719377528 -83.77478400755 0.0101719377158 -83.77478384684 0.9929791497208 174.11458511230
!< P1 F=3.4885 Eeff=(10.6476884 -2.5212e-5) Z0=(62.9254767 -5.0903e-5) R=0.0 C=0.0 
!< P2 F=3.4885 Eeff=(10.6476884 -2.5212e-5) Z0=(62.9254767 -5.0903e-5) R=0.0 C=0.0 
3.488600000000000 0.9841675668529 114.79567597965 0.1442478671890 47.488945166561 0.1442478671890 47.488945166561 0.9828357506148 164.91961720311
3.488700000000000 0.9541685983318 107.07639696107 0.2826416231090 40.580651765120 0.2826416231090 40.580651765120 0.9529010833072 156.35884645840
3.488800000000000 0.9109559789650 100.18674780546 0.4019873419174 33.679725560662 0.4019873419174 33.679725560662 0.9097678333351 148.65362697539
3.488900000000000 0.8610921998507 94.201121736454 0.5010809967657 27.494434044107 0.5010809967657 27.494434044107 0.8599892460833 141.87725133232
3.489000000000000 0.8095914933393 89.087156058922 0.5815214738429 22.113606971282 0.5815214738429 22.113606971282 0.8085729032673 135.99631270516
3.489100000000000 0.7596312224743 84.755609725364 0.6461282684217 17.487385736285 0.6461282684217 17.487385736285 0.7586922520230 130.92057924192
3.489200000000000 0.7129062774640 81.097699257242 0.6979007090614 13.523439993262 0.6979007090614 13.523439993262 0.7120403407988 126.54032696769
3.489300000000000 0.6701233506276 78.006488338751 0.7395190594220 10.122794419995 0.7395190594220 10.122794419995 0.6693233302055 122.74772653143
3.489400000000000 0.6314083569447 75.386537790440 0.7731885764275 7.1942353983291 0.7731885764275 7.1942353983291 0.6306673259455 119.44649049473
3.489500000000000 0.5965814066854 73.156782849747 0.8006492818660 4.6590755899518 0.8006492818660 4.6590755899518 0.5958929738679 116.55474808258
3.489600000000000 0.5653230392288 71.250128732025 0.8232463786476 2.4516019309025 0.8232463786476 2.4516019309025 0.5646814761887 114.00463836201
3.489700000000000 0.5372673321682 69.611748872569 0.8420113371282 0.5177977359442 0.8420113371282 0.5177977359442 0.5366675855970 111.74060624183
3.489800000000000 0.5120504879331 68.197070419281 0.8577342397504 -1.186444801943 0.8577342397504 -1.186444801943 0.5114881368288 109.71738585567
3.489900000000000 0.4893339094051 66.969875452440 0.8710222096194 -2.697094421398 0.8710222096194 -2.697094421398 0.4888051001103 107.89809979752
3.490000000000000 0.4688133200192 65.900668637942 0.8823444350995 -4.043536272088 0.8823444350995 -4.043536272088 0.4683146961194 106.25262490916
3.490100000000000 0.4502206045623 64.965335614570 0.8920660818341 -5.249865872803 0.8920660818341 -5.249865872803 0.4497492398440 104.75624891315
3.490200000000000 0.4333220983108 64.144065613869 0.9004735784608 -6.335935964559 0.9004735784608 -6.335935964559 0.4328754362523 103.38859138360
3.490300000000000 0.4179153456646 63.420496251276 0.9077934173303 -7.318191622637 0.9077934173303 -7.318191622637 0.4174911465008 102.13274698688
3.490400000000000 0.4038253878150 62.781038000281 0.9142061545062 -8.210332247781 0.9142061545062 -8.210332247781 0.4034216830313 100.97460849841
3.490500000000000 0.3909011077833 62.214341059802 0.9198568778956 -9.023835410211 0.9198568778956 -9.023835410211 0.3905161613771 99.902332299780
3.490600000000000 0.3790118734124 61.710873908974 0.9248630791224 -9.768371821463 0.9248630791224 -9.768371821463 0.3786441490828 98.905915645204
3.490700000000000 0.3680445668763 61.262589081361 0.9293206122220 -10.45213499381 0.9293206122220 -10.45213499381 0.3676927002937 97.976861224280
3.490800000000000 0.3579010120367 60.862656998333 0.9333082362082 -11.08210415633 0.9333082362082 -11.08210415633 0.3575637874098 97.107909855924
3.490900000000000 0.3484957743818 60.505252991646 0.9368911034451 -11.66425490508 0.9368911034451 -11.66425490508 0.3481721046334 96.292826439119
3.491000000000000 0.3397542933476 60.185386017080 0.9401234582109 -12.20372881857 0.9401234582109 -12.20372881857 0.3394432033121 95.526227658061
3.491100000000000 0.3316113030736 59.898760175432 0.9430507394858 -12.70497073937 0.9430507394858 -12.70497073937 0.3313119152193 94.803442554052
3.491200000000000 0.3240094993653 59.641662164874 0.9457112311840 -13.17184046825 0.9457112311840 -13.17184046825 0.3237210216272 94.120399084411
3.491300000000000 0.3168984147420 59.410869329676 0.9481373662008 -13.60770411506 0.9481373662008 -13.60770411506 0.3166201301217 93.473531329933
3.491400000000000 0.3102334683325 59.203574149322 0.9503567637965 -14.01550919618 0.9503567637965 -14.01550919618 0.3099647259794 92.859703191623
3.491500000000000 0.3039751622341 59.017321917530 0.9523930601708 -14.39784668133 0.9523930601708 -14.39784668133 0.3037153697721 92.276145323185
3.491600000000000 0.2980884003994 58.849959056859 0.9542665775769 -14.75700250866 0.9542665775769 -14.75700250866 0.2978370173045 91.720402742042
3.491700000000000 0.2925419100251 58.699590052419 0.9559948665649 -15.09500055854 0.9559948665649 -15.09500055854 0.2922984418890 91.190291099765
3.491800000000000 0.2873077487589 58.564541404661 0.9575931479139 -15.41363866672 0.9575931479139 -15.41363866672 0.2870717423071 90.683860009331
3.491900000000000 0.2823608838671 58.443331325714 0.9590746747715 -15.71451893722 0.9590746747715 -15.71451893722 0.2821319226159 90.199362151366
3.492000000000000 0.2776788318530 58.334644157455 0.9604510309578 -15.99907336608 0.9604510309578 -15.99907336608 0.2774565323143 89.735227135334
3.492100000000000 0.2732413489725 58.237308688871 0.9617323779092 -16.26858558960 0.9617323779092 -16.26858558960 0.2730253573252 89.290039291216
3.492200000000000 0.2690301647065 58.150279707346 0.9629276600860 -16.52420941602 0.9629276600860 -16.52420941602 0.2688201538703 88.862518724341
3.492300000000000 0.2650287515797 58.072622243685 0.9640447766071 -16.76698467580 0.9640447766071 -16.76698467580 0.2648244186349 88.451505091444
3.492400000000000 0.2612221258171 58.003498069743 0.9650907252950 -16.99785082786 0.9650907252950 -16.99785082786 0.2610231897230 88.055943655091
3.492500000000000 0.2575966742320 57.942154087332 0.9660717240716 -17.21765868007 0.9660717240716 -17.21765868007 0.2574028738044 87.674873253620
3.492600000000000 0.2541400034899 57.887912310949 0.9669933136777 -17.42718051913 0.9669933136777 -17.42718051913 0.2539510956035 87.307415887640
3.492700000000000 0.2508408085102 57.840161198538 0.9678604449229 -17.62711889403 0.9678604449229 -17.62711889403 0.2506565664975 86.952767675954
3.492800000000000 0.2476887572815 57.798348126407 0.9686775530708 -17.81811425542 0.9686775530708 -17.81811425542 0.2475089695025 86.610190975723
3.492900000000000 0.2446743897897 57.761972838513 0.9694486214797 -18.00075161977 0.9694486214797 -18.00075161977 0.2444988583522 86.279007495919
3.493000000000000 0.2417890291149 57.730581728243 0.9701772362368 -18.17556639952 0.9701772362368 -18.17556639952 0.2416175687259 85.958592261024
3.493100000000000 0.2390247030449 57.703762833582 0.9708666332132 -18.34304951742 0.9708666332132 -18.34304951742 0.2388571399787 85.648368304866
3.493200000000000 0.2363740748041 57.681141445649 0.9715197387192 -18.50365190503 0.9715197387192 -18.50365190503 0.2362102459723 85.347801993555
3.493300000000000 0.2338303816986 57.662376245876 0.9721392047350 -18.65778846959 0.9721392047350 -18.65778846959 0.2336701338110 85.056398891887
3.493400000000000 0.2313873806564 57.647155900265 0.9727274395314 -18.80584160061 0.9727274395314 -18.80584160061 0.2312305694622 84.773700100797
3.493500000000000 0.2290392997854 57.635196049895 0.9732866343561 -18.94816427702 0.9732866343561 -18.94816427702 0.2288857893851 84.499279004203
3.493600000000000 0.2267807951953 57.626236645660 0.9738187867550 -19.08508282666 0.9738187867550 -19.08508282666 0.2266304574171 84.232738372494
3.493700000000000 0.2246069124363 57.620039583023 0.9743257210059 -19.21689938238 0.9743257210059 -19.21689938238 0.2244596262684 83.973707777719
3.493800000000000 0.2225130519930 57.616386598785 0.9748091060657 -19.34389407281 0.9748091060657 -19.34389407281 0.2223687030670 83.721841281810
3.493900000000000 0.2204949383508 57.615077397095 0.9752704713739 -19.46632698047 0.9752704713739 -19.46632698047 0.2203534184701 83.476815364465
3.494000000000000 0.2185485922133 57.615927976750 0.9757112207988 -19.58443989535 0.9757112207988 -19.58443989535 0.2184097989226 83.238327062125
3.494100000000000 0.2166703055066 57.618769135284 0.9761326449738 -19.69845788845 0.9761326449738 -19.69845788845 0.2165341416977 83.006092293017
3.494200000000000 0.2148566188522 57.623445129008 0.9765359322327 -19.80859072633 0.9765359322327 -19.80859072633 0.2147229924027 82.779844346903
3.494300000000000 0.2131043012304 57.629812470567 0.9769221783241 -19.91503414496 0.9769221783241 -19.91503414496 0.2129731246724 82.559332520615
3.494400000000000 0.2114103315927 57.637738848247 0.9772923950585 -20.01797099898 0.9772923950585 -20.01797099898 0.2112815218084 82.344320883169
3.494500000000000 0.2097718822094 57.647102153146 0.9776475180201 -20.11757230024 0.9776475180201 -20.11757230024 0.2096453601505 82.134587156111
3.494600000000000 0.2081863035661 57.657789602098 0.9779884134589 -20.21399815783 0.9779884134589 -20.21399815783 0.2080619939959 81.929921696639
3.494700000000000 0.2066511106447 57.669696945814 0.9783158844596 -20.30739863027 0.9783158844596 -20.30739863027 0.2065289418994 81.730126572534
3.494800000000000 0.2051639704436 57.682727752846 0.9786306764755 -20.39791449930 0.9786306764755 -20.39791449930 0.2050438742129 81.535014719175
3.494900000000000 0.2037226906106 57.696792761383 0.9789334822990 -20.48567797350 0.9789334822990 -20.48567797350 0.2036046017336 81.344409170325
3.495000000000000 0.2023252090732 57.711809291494 0.9792249465359 -20.57081332899 0.9792249465359 -20.57081332899 0.2022090653503 81.158142354967
3.495100000000000 0.2009695845684 57.727700711649 0.9795056696373 -20.65343749380 0.9795056696373 -20.65343749380 0.2008553265865 80.976055453738