! Sonnet Data File
! From: emgraph Version : 14.52
! From Project: Resonators_Unit_v1.1_NbNceroKi
! Data is De-embedded 
! Data File Written: 05/17/2020 10:04:52
! HDATE 05/16/2020 16:55:56
! MDATE 05/17/2020 05:32:01
! NUMPORTS: 2

BEGIN ACDATA
# hz s ma r 50
% f N11X N11Y N12X N12Y N21X N21Y N22X N22Y
3.7e9 0.001421297411 -115.2833324539 0.9999852874065 -20.62095734992 0.9999852874065 -20.62095734992 0.0014213195191 -104.8625829455
3.701e9 0.0014222082603 -115.2927959976 0.9999852760592 -20.6265745457 0.9999852760592 -20.6265745457 0.0014222313568 -104.8642834135
3.702e9 0.0014231203879 -115.3022608598 0.999985264226 -20.63219178638 0.999985264226 -20.63219178638 0.0014231446203 -104.8659751719
3.703e9 0.0014240339341 -115.3117305264 0.9999852524074 -20.63780912004 0.9999852524074 -20.63780912004 0.0014240593033 -104.8676647826
3.704e9 0.0014249489026 -115.3212049979 0.9999852406033 -20.64342654692 0.9999852406033 -20.64342654692 0.0014249754098 -104.869352236
3.705e9 0.0014258652977 -115.3306842744 0.9999852288138 -20.64904406727 0.9999852288138 -20.64904406727 0.0014258929438 -104.8710375226
3.706e9 0.0014267831233 -115.3401683566 0.9999852170387 -20.65466168132 0.9999852170387 -20.65466168132 0.0014268119094 -104.872720633
3.707e9 0.0014277023833 -115.3496572446 0.999985205278 -20.66027938931 0.999985205278 -20.66027938931 0.0014277323105 -104.8744015574
3.708e9 0.001428623082 -115.359150939 0.9999851935316 -20.66589719148 0.9999851935316 -20.66589719148 0.0014286541511 -104.8760802865
3.709e9 0.0014295452232 -115.3686494401 0.9999851817994 -20.67151508809 0.9999851817994 -20.67151508809 0.0014295774353 -104.8777568108
3.71e9 0.0014304688112 -115.3781527485 0.9999851700815 -20.67713307936 0.9999851700815 -20.67713307936 0.0014305021671 -104.8794311209
3.711e9 0.0014313938499 -115.3876608646 0.9999851583777 -20.68275116555 0.9999851583777 -20.68275116555 0.0014314283506 -104.8811032071
3.712e9 0.0014323203434 -115.3971737889 0.9999851466879 -20.6883693469 0.9999851466879 -20.6883693469 0.00143235599 -104.8827730603
3.713e9 0.001433248296 -115.406691522 0.9999851350121 -20.69398762365 0.9999851350121 -20.69398762365 0.0014332850892 -104.8844406709
3.714e9 0.0014341777116 -115.4162140643 0.9999851233503 -20.69960599606 0.9999851233503 -20.69960599606 0.0014342156524 -104.8861060295
3.715e9 0.0014351085945 -115.4257414166 0.9999851117024 -20.70522446436 0.9999851117024 -20.70522446436 0.0014351476837 -104.8877691268
3.716e9 0.0014360409488 -115.4352735793 0.9999851000683 -20.71084302882 0.9999851000683 -20.71084302882 0.0014360811873 -104.8894299534
3.717e9 0.0014369747787 -115.4448105531 0.9999850884479 -20.71646168967 0.9999850884479 -20.71646168967 0.0014370161674 -104.8910885001
3.718e9 0.0014379100884 -115.4543523386 0.9999850768412 -20.72208044717 0.9999850768412 -20.72208044717 0.001437952628 -104.8927447573
3.719e9 0.001438846882 -115.4638989364 0.9999850652482 -20.72769930156 0.9999850652482 -20.72769930156 0.0014388905734 -104.894398716
3.72e9 0.0014397851639 -115.4734503473 0.9999850536687 -20.73331825311 0.9999850536687 -20.73331825311 0.0014398300078 -104.8960503667
3.721e9 0.0014407249381 -115.483006572 0.9999850421027 -20.73893730206 0.9999850421027 -20.73893730206 0.0014407709354 -104.8976997003
3.722e9 0.0014416662091 -115.4925676112 0.9999850305502 -20.74455644867 0.9999850305502 -20.74455644867 0.0014417133605 -104.8993467074
3.723e9 0.0014426089809 -115.5021334656 0.999985019011 -20.75017569318 0.999985019011 -20.75017569318 0.0014426572872 -104.9009913788
3.724e9 0.001443553258 -115.511704136 0.9999850074851 -20.75579503587 0.9999850074851 -20.75579503587 0.0014436027199 -104.9026337053
3.725e9 0.0014444990446 -115.5212796231 0.9999849959725 -20.76141447697 0.9999849959725 -20.76141447697 0.0014445496629 -104.9042736778
3.726e9 0.001445446345 -115.5308599279 0.9999849844731 -20.76703401675 0.9999849844731 -20.76703401675 0.0014454981203 -104.905911287
3.727e9 0.0014463951635 -115.5404450511 0.9999849729868 -20.77265365547 0.9999849729868 -20.77265365547 0.0014464480966 -104.9075465238
3.728e9 0.0014473455045 -115.5500349936 0.9999849615136 -20.77827339339 0.9999849615136 -20.77827339339 0.0014473995961 -104.9091793791
3.729e9 0.0014482973724 -115.5596297562 0.9999849500533 -20.78389323076 0.9999849500533 -20.78389323076 0.0014483526231 -104.9108098436
3.73e9 0.0014492507715 -115.5692293399 0.999984938606 -20.78951316784 0.999984938606 -20.78951316784 0.001449307182 -104.9124379083
3.731e9 0.0014502057062 -115.5788337456 0.9999849271716 -20.79513320491 0.9999849271716 -20.79513320491 0.0014502632771 -104.9140635641
3.732e9 0.0014511621809 -115.5884429741 0.9999849157499 -20.80075334221 0.9999849157499 -20.80075334221 0.0014512209128 -104.915686802
3.733e9 0.0014521202 -115.5980570266 0.999984904341 -20.80637358001 0.999984904341 -20.80637358001 0.0014521800936 -104.9173076128
3.734e9 0.001453079768 -115.6076759039 0.9999848929448 -20.81199391858 0.9999848929448 -20.81199391858 0.0014531408238 -104.9189259876
3.735e9 0.0014540408893 -115.617299607 0.9999848815612 -20.81761435818 0.9999848815612 -20.81761435818 0.001454103108 -104.9205419172
3.736e9 0.0014550035683 -115.6269281371 0.9999848701902 -20.82323489908 0.9999848701902 -20.82323489908 0.0014550669505 -104.9221553928
3.737e9 0.0014559678097 -115.6365614951 0.9999848588316 -20.82885554155 0.9999848588316 -20.82885554155 0.0014560323558 -104.9237664053
3.738e9 0.0014569336178 -115.6461996821 0.9999848474855 -20.83447628584 0.9999848474855 -20.83447628584 0.0014569993285 -104.9253749457
3.739e9 0.0014579009972 -115.6558426991 0.9999848361517 -20.84009713224 0.9999848361517 -20.84009713224 0.0014579678729 -104.9269810051
3.74e9 0.0014588699525 -115.6654905474 0.9999848248302 -20.84571808101 0.9999848248302 -20.84571808101 0.0014589379938 -104.9285845745
3.741e9 0.0014598404881 -115.6751432281 0.999984813521 -20.85133913242 0.999984813521 -20.85133913242 0.0014599096955 -104.930185645
3.742e9 0.0014608126086 -115.6848007422 0.999984802224 -20.85696028675 0.999984802224 -20.85696028675 0.0014608829827 -104.9317842078
3.743e9 0.0014617863187 -115.6944630909 0.999984790939 -20.86258154425 0.999984790939 -20.86258154425 0.0014618578598 -104.9333802539
3.744e9 0.0014627616229 -115.7041302755 0.9999847796661 -20.86820290522 0.9999847796661 -20.86820290522 0.0014628343316 -104.9349737744
3.745e9 0.0014637385259 -115.7138022972 0.9999847684052 -20.87382436992 0.9999847684052 -20.87382436992 0.0014638124026 -104.9365647605
3.746e9 0.0014647170322 -115.7234791572 0.9999847571562 -20.87944593864 0.9999847571562 -20.87944593864 0.0014647920774 -104.9381532034
3.747e9 0.0014656971465 -115.7331608568 0.9999847459191 -20.88506761163 0.9999847459191 -20.88506761163 0.0014657733606 -104.9397390943
3.748e9 0.0014666788736 -115.7428473972 0.9999847346937 -20.89068938919 0.9999847346937 -20.89068938919 0.0014667562571 -104.9413224243
3.749e9 0.001467662218 -115.7525387797 0.9999847234801 -20.89631127159 0.9999847234801 -20.89631127159 0.0014677407713 -104.9429031846
3.75e9 0.0014686471846 -115.7622350058 0.9999847122781 -20.90193325911 0.9999847122781 -20.90193325911 0.001468726908 -104.9444813666
3.751e9 0.0014696337779 -115.7719360766 0.9999847010878 -20.90755535203 0.9999847010878 -20.90755535203 0.0014697146719 -104.9460569613
3.752e9 0.0014706220028 -115.7816419936 0.999984689909 -20.91317755064 0.999984689909 -20.91317755064 0.0014707040677 -104.9476299602
3.753e9 0.001471611864 -115.7913527581 0.9999846787416 -20.91879985521 0.9999846787416 -20.91879985521 0.0014716951002 -104.9492003545
3.754e9 0.0014726033663 -115.8010683716 0.9999846675857 -20.92442226602 0.9999846675857 -20.92442226602 0.0014726877741 -104.9507681354
3.755e9 0.0014735965145 -115.8107888354 0.9999846564411 -20.93004478337 0.9999846564411 -20.93004478337 0.0014736820943 -104.9523332943
3.756e9 0.0014745913133 -115.8205141511 0.9999846453078 -20.93566740753 0.9999846453078 -20.93566740753 0.0014746780654 -104.9538958225
3.757e9 0.0014755877676 -115.8302443201 0.9999846341857 -20.9412901388 0.9999846341857 -20.9412901388 0.0014756756924 -104.9554557114
3.758e9 0.0014765858823 -115.8399793439 0.9999846230748 -20.94691297746 0.9999846230748 -20.94691297746 0.0014766749801 -104.9570129523
3.759e9 0.0014775856622 -115.8497192239 0.999984611975 -20.9525359238 0.999984611975 -20.9525359238 0.0014776759333 -104.9585675367
3.76e9 0.0014785871122 -115.8594639617 0.9999846008861 -20.95815897811 0.9999846008861 -20.95815897811 0.0014786785568 -104.9601194558
3.761e9 0.0014795902372 -115.8692135589 0.9999845898083 -20.96378214067 0.9999845898083 -20.96378214067 0.0014796828557 -104.9616687012
3.762e9 0.0014805950421 -115.8789680171 0.9999845787414 -20.96940541179 0.9999845787414 -20.96940541179 0.0014806888347 -104.9632152642
3.763e9 0.0014816015318 -115.8887273377 0.9999845676853 -20.97502879175 0.9999845676853 -20.97502879175 0.0014816964988 -104.9647591363
3.764e9 0.0014826097113 -115.8984915225 0.9999845566399 -20.98065228085 0.9999845566399 -20.98065228085 0.001482705853 -104.966300309
3.765e9 0.0014836195856 -115.908260573 0.9999845456053 -20.98627587938 0.9999845456053 -20.98627587938 0.0014837169021 -104.9678387737
3.766e9 0.0014846311597 -115.9180344909 0.9999845345813 -20.99189958763 0.9999845345813 -20.99189958763 0.0014847296513 -104.9693745219
3.767e9 0.0014856444385 -115.9278132779 0.9999845235679 -20.99752340591 0.9999845235679 -20.99752340591 0.0014857441055 -104.9709075451
3.768e9 0.0014866594271 -115.9375969356 0.9999845125651 -21.00314733451 0.9999845125651 -21.00314733451 0.0014867602696 -104.972437835
3.769e9 0.0014876761306 -115.9473854658 0.9999845015726 -21.00877137373 0.9999845015726 -21.00877137373 0.0014877781488 -104.973965383
3.77e9 0.001488694554 -115.9571788703 0.9999844905906 -21.01439552387 0.9999844905906 -21.01439552387 0.0014887977481 -104.9754901806
3.771e9 0.0014897147023 -115.9669771507 0.9999844796189 -21.02001978523 0.9999844796189 -21.02001978523 0.0014898190726 -104.9770122195
3.772e9 0.0014907365808 -115.9767803088 0.9999844686574 -21.02564415811 0.9999844686574 -21.02564415811 0.0014908421274 -104.9785314913
3.773e9 0.0014917601945 -115.9865883464 0.9999844577062 -21.03126864282 0.9999844577062 -21.03126864282 0.0014918669175 -104.9800479875
3.774e9 0.0014927855486 -115.9964012654 0.9999844467651 -21.03689323966 0.9999844467651 -21.03689323966 0.0014928934482 -104.9815616998
3.775e9 0.0014938126481 -116.0062190675 0.999984435834 -21.04251794894 0.999984435834 -21.04251794894 0.0014939217246 -104.9830726198
3.776e9 0.0014948414984 -116.0160417547 0.999984424913 -21.04814277096 0.999984424913 -21.04814277096 0.0014949517517 -104.9845807392
3.777e9 0.0014958721046 -116.0258693288 0.9999844140019 -21.05376770603 0.9999844140019 -21.05376770603 0.001495983535 -104.9860860496
3.778e9 0.001496904472 -116.0357017916 0.9999844031007 -21.05939275445 0.9999844031007 -21.05939275445 0.0014970170794 -104.9875885428
3.779e9 0.0014979386057 -116.0455391451 0.9999843922093 -21.06501791655 0.9999843922093 -21.06501791655 0.0014980523904 -104.9890882105
3.78e9 0.001498974511 -116.0553813913 0.9999843813276 -21.07064319263 0.9999843813276 -21.07064319263 0.0014990894731 -104.9905850443
3.781e9 0.0015000121933 -116.065228532 0.9999843704556 -21.076268583 0.9999843704556 -21.076268583 0.0015001283328 -104.992079036
3.782e9 0.0015010516577 -116.0750805693 0.9999843595933 -21.08189408797 0.9999843595933 -21.08189408797 0.0015011689747 -104.9935701774
3.783e9 0.0015020929097 -116.0849375052 0.9999843487405 -21.08751970786 0.9999843487405 -21.08751970786 0.0015022114043 -104.9950584603
3.784e9 0.0015031359546 -116.0947993416 0.9999843378972 -21.09314544299 0.9999843378972 -21.09314544299 0.0015032556268 -104.9965438763
3.785e9 0.0015041807976 -116.1046660805 0.9999843270633 -21.09877129367 0.9999843270633 -21.09877129367 0.0015043016477 -104.9980264174
3.786e9 0.0015052274443 -116.1145377241 0.9999843162388 -21.10439726022 0.9999843162388 -21.10439726022 0.0015053494721 -104.9995060753
3.787e9 0.0015062759 -116.1244142745 0.9999843054236 -21.11002334295 0.9999843054236 -21.11002334295 0.0015063991057 -105.0009828419
3.788e9 0.0015073261702 -116.1342957336 0.9999842946177 -21.1156495422 0.9999842946177 -21.1156495422 0.0015074505537 -105.0024567091
3.789e9 0.0015083782602 -116.1441821036 0.9999842838209 -21.12127585827 0.9999842838209 -21.12127585827 0.0015085038216 -105.0039276686
3.79e9 0.0015094321756 -116.1540733867 0.9999842730332 -21.1269022915 0.9999842730332 -21.1269022915 0.0015095589149 -105.0053957124
3.791e9 0.0015104879218 -116.163969585 0.9999842622545 -21.13252884221 0.9999842622545 -21.13252884221 0.001510615839 -105.0068608324
3.792e9 0.0015115455043 -116.1738707007 0.9999842514849 -21.13815551071 0.9999842514849 -21.13815551071 0.0015116745994 -105.0083230204
3.793e9 0.0015126049287 -116.1837767359 0.9999842407241 -21.14378229735 0.9999842407241 -21.14378229735 0.0015127352017 -105.0097822685
3.794e9 0.0015136662004 -116.1936876929 0.9999842299722 -21.14940920244 0.9999842299722 -21.14940920244 0.0015137976514 -105.0112385685
3.795e9 0.0015147293252 -116.2036035738 0.9999842192291 -21.15503622631 0.9999842192291 -21.15503622631 0.0015148619541 -105.0126919124
3.796e9 0.0015157943085 -116.2135243811 0.9999842084947 -21.16066336929 0.9999842084947 -21.16066336929 0.0015159281153 -105.0141422922
3.797e9 0.001516861156 -116.2234501167 0.999984197769 -21.16629063172 0.999984197769 -21.16629063172 0.0015169961406 -105.0155896999
3.798e9 0.0015179298733 -116.2333807833 0.9999841870519 -21.17191801392 0.9999841870519 -21.17191801392 0.0015180660358 -105.0170341276
3.799e9 0.0015190004661 -116.2433163829 0.9999841763433 -21.17754551624 0.9999841763433 -21.17754551624 0.0015191378063 -105.0184755671
3.8e9 0.00152007294 -116.2532569179 0.9999841656431 -21.183173139 0.9999841656431 -21.183173139 0.0015202114579 -105.0199140105
3.801e9 0.0015211473007 -116.2632023907 0.9999841549514 -21.18880088254 0.9999841549514 -21.18880088254 0.0015212869963 -105.02134945
3.802e9 0.001522223554 -116.2731528037 0.999984144268 -21.19442874719 0.999984144268 -21.19442874719 0.0015223644272 -105.0227818775
3.803e9 0.0015233017057 -116.2831081592 0.9999841335929 -21.20005673331 0.9999841335929 -21.20005673331 0.0015234437564 -105.0242112852
3.804e9 0.0015243817613 -116.2930684596 0.9999841229259 -21.20568484122 0.9999841229259 -21.20568484122 0.0015245249895 -105.0256376652
3.805e9 0.0015254637269 -116.3030337074 0.9999841122672 -21.21131307126 0.9999841122672 -21.21131307126 0.0015256081324 -105.0270610095
3.806e9 0.001526547608 -116.313003905 0.9999841016165 -21.21694142378 0.9999841016165 -21.21694142378 0.0015266931908 -105.0284813104
3.807e9 0.0015276334107 -116.3229790548 0.9999840909738 -21.22256989913 0.9999840909738 -21.22256989913 0.0015277801707 -105.0298985599
3.808e9 0.0015287211408 -116.3329591594 0.999984080339 -21.22819849765 0.999984080339 -21.22819849765 0.0015288690778 -105.0313127502
3.809e9 0.001529810804 -116.3429442212 0.9999840697122 -21.23382721967 0.9999840697122 -21.23382721967 0.0015299599181 -105.0327238735
3.81e9 0.0015309024064 -116.3529342428 0.9999840590932 -21.23945606556 0.9999840590932 -21.23945606556 0.0015310526973 -105.034131922
3.811e9 0.0015319959539 -116.3629292266 0.9999840484819 -21.24508503566 0.9999840484819 -21.24508503566 0.0015321474215 -105.0355368879
3.812e9 0.0015330914523 -116.3729291753 0.9999840378783 -21.25071413032 0.9999840378783 -21.25071413032 0.0015332440966 -105.0369387634
3.813e9 0.0015341889077 -116.3829340915 0.9999840272823 -21.25634334989 0.9999840272823 -21.25634334989 0.0015343427285 -105.0383375408
3.814e9 0.0015352883261 -116.3929439777 0.999984016694 -21.26197269472 0.999984016694 -21.26197269472 0.0015354433232 -105.0397332123
3.815e9 0.0015363897135 -116.4029588365 0.9999840061131 -21.26760216517 0.9999840061131 -21.26760216517 0.0015365458868 -105.0411257702
3.816e9 0.0015374930758 -116.4129786706 0.9999839955396 -21.27323176159 0.9999839955396 -21.27323176159 0.0015376504252 -105.0425152067
3.817e9 0.0015385984193 -116.4230034826 0.9999839849735 -21.27886148435 0.9999839849735 -21.27886148435 0.0015387569445 -105.0439015142
3.818e9 0.0015397057499 -116.4330332753 0.9999839744147 -21.28449133379 0.9999839744147 -21.28449133379 0.0015398654509 -105.045284685
3.819e9 0.0015408150738 -116.4430680512 0.9999839638632 -21.29012131028 0.9999839638632 -21.29012131028 0.0015409759504 -105.0466647114
3.82e9 0.0015419263971 -116.4531078131 0.9999839533188 -21.29575141417 0.9999839533188 -21.29575141417 0.0015420884491 -105.0480415858
3.821e9 0.001543039726 -116.4631525638 0.9999839427815 -21.30138164584 0.9999839427815 -21.30138164584 0.0015432029532 -105.0494153005
3.822e9 0.0015441550666 -116.473202306 0.9999839322513 -21.30701200564 0.9999839322513 -21.30701200564 0.0015443194689 -105.0507858478
3.823e9 0.0015452724252 -116.4832570424 0.9999839217281 -21.31264249394 0.9999839217281 -21.31264249394 0.0015454380024 -105.0521532203
3.824e9 0.001546391808 -116.4933167758 0.9999839112118 -21.31827311111 0.9999839112118 -21.31827311111 0.0015465585599 -105.0535174103
3.825e9 0.0015475132212 -116.5033815091 0.9999839007023 -21.32390385751 0.9999839007023 -21.32390385751 0.0015476811477 -105.0548784102
3.826e9 0.0015486366712 -116.513451245 0.9999838901996 -21.32953473351 0.9999838901996 -21.32953473351 0.001548805772 -105.0562362124
3.827e9 0.0015497621642 -116.5235259865 0.9999838797037 -21.33516573948 0.9999838797037 -21.33516573948 0.0015499324391 -105.0575908094
3.828e9 0.0015508897066 -116.5336057363 0.9999838692144 -21.3407968758 0.9999838692144 -21.3407968758 0.0015510611554 -105.0589421937
3.829e9 0.0015520193047 -116.5436904973 0.9999838587317 -21.34642814284 0.9999838587317 -21.34642814284 0.0015521919272 -105.0602903578
3.83e9 0.0015531509649 -116.5537802725 0.9999838482555 -21.35205954097 0.9999838482555 -21.35205954097 0.0015533247609 -105.0616352941
3.831e9 0.0015542846937 -116.5638750648 0.9999838377858 -21.35769107057 0.9999838377858 -21.35769107057 0.0015544596629 -105.0629769952
3.832e9 0.0015554204973 -116.5739748771 0.9999838273225 -21.36332273201 0.9999838273225 -21.36332273201 0.0015555966396 -105.0643154535
3.833e9 0.0015565583824 -116.5840797123 0.9999838168655 -21.36895452569 0.9999838168655 -21.36895452569 0.0015567356975 -105.0656506617
3.834e9 0.0015576983554 -116.5941895734 0.9999838064148 -21.37458645197 0.9999838064148 -21.37458645197 0.0015578768431 -105.0669826123
3.835e9 0.0015588404227 -116.6043044635 0.9999837959703 -21.38021851123 0.9999837959703 -21.38021851123 0.0015590200828 -105.0683112979
3.836e9 0.001559984591 -116.6144243855 0.9999837855319 -21.38585070387 0.9999837855319 -21.38585070387 0.0015601654232 -105.0696367109
3.837e9 0.0015611308668 -116.6245493424 0.9999837750996 -21.39148303027 0.9999837750996 -21.39148303027 0.0015613128709 -105.0709588441
3.838e9 0.0015622792567 -116.6346793374 0.9999837646734 -21.39711549082 0.9999837646734 -21.39711549082 0.0015624624324 -105.0722776901
3.839e9 0.0015634297672 -116.6448143735 0.999983754253 -21.40274808589 0.999983754253 -21.40274808589 0.0015636141144 -105.0735932415
3.84e9 0.0015645824051 -116.6549544536 0.9999837438386 -21.40838081589 0.9999837438386 -21.40838081589 0.0015647679234 -105.0749054909
3.841e9 0.001565737177 -116.6650995811 0.9999837334299 -21.4140136812 0.9999837334299 -21.4140136812 0.0015659238662 -105.076214431
3.842e9 0.0015668940896 -116.6752497589 0.999983723027 -21.41964668221 0.999983723027 -21.41964668221 0.0015670819494 -105.0775200544
3.843e9 0.0015680531496 -116.6854049903 0.9999837126298 -21.42527981933 0.9999837126298 -21.42527981933 0.0015682421798 -105.0788223539
3.844e9 0.0015692143638 -116.6955652783 0.9999837022382 -21.43091309294 0.9999837022382 -21.43091309294 0.001569404564 -105.0801213222
3.845e9 0.0015703777388 -116.7057306262 0.9999836918522 -21.43654650345 0.9999836918522 -21.43654650345 0.001570569109 -105.081416952
3.846e9 0.0015715432817 -116.7159010371 0.9999836814717 -21.44218005124 0.9999836814717 -21.44218005124 0.0015717358214 -105.082709236
3.847e9 0.0015727109991 -116.7260765143 0.9999836710965 -21.44781373673 0.9999836710965 -21.44781373673 0.001572904708 -105.083998167
3.848e9 0.0015738808979 -116.7362570611 0.9999836607268 -21.45344756031 0.9999836607268 -21.45344756031 0.0015740757759 -105.0852837377
3.849e9 0.001575052985 -116.7464426805 0.9999836503623 -21.45908152239 0.9999836503623 -21.45908152239 0.0015752490317 -105.0865659408
3.85e9 0.0015762272673 -116.756633376 0.9999836400031 -21.46471562338 0.9999836400031 -21.46471562338 0.0015764244825 -105.0878447693
3.851e9 0.0015774037518 -116.7668291508 0.999983629649 -21.47034986367 0.999983629649 -21.47034986367 0.0015776021352 -105.0891202159
3.852e9 0.0015785824454 -116.7770300082 0.9999836193001 -21.47598424368 0.9999836193001 -21.47598424368 0.0015787819967 -105.0903922735
3.853e9 0.0015797633551 -116.7872359515 0.9999836089561 -21.48161876382 0.9999836089561 -21.48161876382 0.001579964074 -105.0916609347
3.854e9 0.001580946488 -116.7974469841 0.9999835986172 -21.48725342449 0.9999835986172 -21.48725342449 0.0015811483742 -105.0929261926
3.855e9 0.0015821318511 -116.8076631093 0.9999835882831 -21.49288822612 0.9999835882831 -21.49288822612 0.0015823349043 -105.09418804
3.856e9 0.0015833194514 -116.8178843306 0.9999835779539 -21.49852316912 0.9999835779539 -21.49852316912 0.0015835236714 -105.0954464698
3.857e9 0.0015845092962 -116.8281106513 0.9999835676294 -21.5041582539 0.9999835676294 -21.5041582539 0.0015847146825 -105.0967014748
3.858e9 0.0015857013924 -116.8383420748 0.9999835573097 -21.50979348088 0.9999835573097 -21.50979348088 0.0015859079449 -105.097953048
3.859e9 0.0015868957474 -116.8485786045 0.9999835469946 -21.51542885048 0.9999835469946 -21.51542885048 0.0015871034657 -105.0992011822
3.86e9 0.0015880923682 -116.858820244 0.9999835366841 -21.52106436312 0.9999835366841 -21.52106436312 0.0015883012521 -105.1004458705
3.861e9 0.0015892912622 -116.8690669966 0.9999835263781 -21.52670001923 0.9999835263781 -21.52670001923 0.0015895013112 -105.1016871058
3.862e9 0.0015904924366 -116.8793188659 0.9999835160765 -21.53233581924 0.9999835160765 -21.53233581924 0.0015907036505 -105.102924881
3.863e9 0.0015916958986 -116.8895758553 0.9999835057794 -21.53797176355 0.9999835057794 -21.53797176355 0.0015919082771 -105.1041591891
3.864e9 0.0015929016556 -116.8998379685 0.9999834954865 -21.54360785262 0.9999834954865 -21.54360785262 0.0015931151984 -105.1053900232
3.865e9 0.0015941097149 -116.9101052089 0.9999834851979 -21.54924408686 0.9999834851979 -21.54924408686 0.0015943244217 -105.1066173762
3.866e9 0.0015953200839 -116.9203775801 0.9999834749135 -21.5548804667 0.9999834749135 -21.5548804667 0.0015955359544 -105.1078412411
3.867e9 0.00159653277 -116.9306550856 0.9999834646332 -21.56051699259 0.9999834646332 -21.56051699259 0.0015967498038 -105.109061611
3.868e9 0.0015977477807 -116.9409377291 0.999983454357 -21.56615366495 0.999983454357 -21.56615366495 0.0015979659775 -105.110278479
3.869e9 0.0015989651234 -116.9512255142 0.9999834440847 -21.57179048422 0.9999834440847 -21.57179048422 0.0015991844829 -105.1114918381
3.87e9 0.0016001848056 -116.9615184445 0.9999834338164 -21.57742745084 0.9999834338164 -21.57742745084 0.0016004053275 -105.1127016814
3.871e9 0.0016014068348 -116.9718165237 0.9999834235519 -21.58306456526 0.9999834235519 -21.58306456526 0.0016016285188 -105.113908002
3.872e9 0.0016026312187 -116.9821197554 0.9999834132912 -21.58870182791 0.9999834132912 -21.58870182791 0.0016028540643 -105.115110793
3.873e9 0.0016038579647 -116.9924281433 0.9999834030343 -21.59433923923 0.9999834030343 -21.59433923923 0.0016040819718 -105.1163100475
3.874e9 0.0016050870805 -117.002741691 0.999983392781 -21.59997679968 0.999983392781 -21.59997679968 0.0016053122487 -105.1175057587
3.875e9 0.0016063185738 -117.0130604024 0.9999833825313 -21.60561450969 0.9999833825313 -21.60561450969 0.0016065449028 -105.1186979197
3.876e9 0.0016075524523 -117.0233842813 0.9999833722852 -21.61125236973 0.9999833722852 -21.61125236973 0.0016077799416 -105.1198865237
3.877e9 0.0016087887236 -117.0337133312 0.9999833620425 -21.61689038024 0.9999833620425 -21.61689038024 0.0016090173731 -105.1210715639
3.878e9 0.0016100273956 -117.044047556 0.9999833518032 -21.62252854166 0.9999833518032 -21.62252854166 0.0016102572048 -105.1222530334
3.879e9 0.0016112684759 -117.0543869595 0.9999833415673 -21.62816685447 0.9999833415673 -21.62816685447 0.0016114994446 -105.1234309255
3.88e9 0.0016125119725 -117.0647315455 0.9999833313346 -21.63380531911 0.9999833313346 -21.63380531911 0.0016127441003 -105.1246052334
3.881e9 0.0016137578931 -117.0750813178 0.9999833211052 -21.63944393605 0.9999833211052 -21.63944393605 0.0016139911797 -105.1257759503
3.882e9 0.0016150062457 -117.0854362803 0.9999833108788 -21.64508270574 0.9999833108788 -21.64508270574 0.0016152406907 -105.1269430695
3.883e9 0.0016162570382 -117.0957964368 0.9999833006556 -21.65072162865 0.9999833006556 -21.65072162865 0.0016164926413 -105.1281065843
3.884e9 0.0016175102784 -117.1061617912 0.9999832904353 -21.65636070523 0.9999832904353 -21.65636070523 0.0016177470393 -105.1292664879
3.885e9 0.0016187659744 -117.1165323475 0.999983280218 -21.66199993596 0.999983280218 -21.66199993596 0.0016190038927 -105.1304227736
3.886e9 0.0016200241342 -117.1269081094 0.9999832700036 -21.66763932131 0.9999832700036 -21.66763932131 0.0016202632097 -105.1315754348
3.887e9 0.0016212847659 -117.1372890811 0.9999832597919 -21.67327886174 0.9999832597919 -21.67327886174 0.0016215249981 -105.1327244647
3.888e9 0.0016225478774 -117.1476752663 0.9999832495831 -21.67891855772 0.9999832495831 -21.67891855772 0.0016227892661 -105.1338698568
3.889e9 0.001623813477 -117.1580666691 0.9999832393769 -21.68455840973 0.9999832393769 -21.68455840973 0.0016240560218 -105.1350116042
3.89e9 0.0016250815728 -117.1684632934 0.9999832291733 -21.69019841825 0.9999832291733 -21.69019841825 0.0016253252734 -105.1361497005
3.891e9 0.0016263521729 -117.1788651434 0.9999832189722 -21.69583858375 0.9999832189722 -21.69583858375 0.001626597029 -105.137284139
3.892e9 0.0016276252857 -117.1892722229 0.9999832087737 -21.70147890672 0.9999832087737 -21.70147890672 0.0016278712968 -105.1384149131
3.893e9 0.0016289009192 -117.199684536 0.9999831985775 -21.70711938762 0.9999831985775 -21.70711938762 0.0016291480851 -105.1395420161
3.894e9 0.0016301790819 -117.2101020868 0.9999831883837 -21.71276002696 0.9999831883837 -21.71276002696 0.0016304274022 -105.1406654416
3.895e9 0.0016314597819 -117.2205248793 0.9999831781922 -21.7184008252 0.9999831781922 -21.7184008252 0.0016317092564 -105.1417851829
3.896e9 0.0016327430278 -117.2309529177 0.9999831680029 -21.72404178285 0.9999831680029 -21.72404178285 0.001632993656 -105.1429012335
3.897e9 0.0016340288279 -117.2413862061 0.9999831578157 -21.72968290038 0.9999831578157 -21.72968290038 0.0016342806095 -105.1440135869
3.898e9 0.0016353171905 -117.2518247485 0.9999831476307 -21.7353241783 0.9999831476307 -21.7353241783 0.0016355701253 -105.1451222365
3.899e9 0.0016366081243 -117.2622685491 0.9999831374476 -21.74096561709 0.9999831374476 -21.74096561709 0.0016368622118 -105.1462271758
3.9e9 0.0016379016376 -117.2727176122 0.9999831272665 -21.74660721726 0.9999831272665 -21.74660721726 0.0016381568775 -105.1473283984
4.0e9 0.0017819170569 -118.3449861418 0.999982106941 -22.31167739978 0.999982106941 -22.31167739978 0.0017822862869 -105.2376205178
4.005e9 0.0017900182325 -118.3984700497 0.9999820613135 -22.33998424945 0.9999820613135 -22.33998424945 0.0017903411818 -105.2389313269
4.01e9 0.0017982119598 -118.4521621061 0.9999820154421 -22.36829681049 0.9999820154421 -22.36829681049 0.0017984894682 -105.2402047328
4.015e9 0.0018065000102 -118.5060593205 0.9999819692711 -22.39661518082 0.9999819692711 -22.39661518082 0.0018067329013 -105.2414381551
4.02e9 0.0018148841588 -118.5601614317 0.9999819227877 -22.42493946266 0.9999819227877 -22.42493946266 0.0018150732525 -105.2426299769
4.025e9 0.0018233662241 -118.6144681973 0.9999818759793 -22.4532697607 0.9999818759793 -22.4532697607 0.0018235123364 -105.2437785955
4.03e9 0.0018319480692 -118.6689793935 0.9999818288331 -22.48160618221 0.9999818288331 -22.48160618221 0.0018320520122 -105.244882423
4.035e9 0.001840631603 -118.7236948151 0.9999817813364 -22.50994883707 0.9999817813364 -22.50994883707 0.0018406941853 -105.2459398861
4.04e9 0.001849418782 -118.7786142758 0.9999817334764 -22.53829783789 0.9999817334764 -22.53829783789 0.0018494408082 -105.2469494263
4.045e9 0.0018583116118 -118.8337376079 0.99998168524 -22.56665330009 0.99998168524 -22.56665330009 0.0018582938825 -105.2479094997
4.05e9 0.001867312148 -118.8890646626 0.9999816366142 -22.59501534195 0.9999816366142 -22.59501534195 0.0018672554603 -105.2488185772
4.055e9 0.0018764224986 -118.9445953096 0.999981587586 -22.62338408478 0.999981587586 -22.62338408478 0.0018763276453 -105.2496751449
4.06e9 0.0018856448249 -119.0003294379 0.9999815381421 -22.65175965291 0.9999815381421 -22.65175965291 0.0018855125953 -105.2504777034
4.065e9 0.001894981344 -119.0562669548 0.9999814882693 -22.6801421739 0.9999814882693 -22.6801421739 0.0018948125231 -105.2512247688
4.07e9 0.0019044343297 -119.1124077869 0.999981437954 -22.70853177854 0.999981437954 -22.70853177854 0.0019042296987 -105.2519148721
4.075e9 0.0019140061151 -119.1687518796 0.9999813871827 -22.73692860102 0.9999813871827 -22.73692860102 0.0019137664513 -105.2525465593
4.08e9 0.001923699094 -119.2252991971 0.9999813359417 -22.76533277901 0.9999813359417 -22.76533277901 0.0019234251706 -105.253118392
4.085e9 0.0019335157233 -119.2820497227 0.999981284217 -22.79374445381 0.999981284217 -22.79374445381 0.0019332083094 -105.253628947
4.09e9 0.0019434585247 -119.3390034588 0.9999812319948 -22.82216377041 0.9999812319948 -22.82216377041 0.0019431183854 -105.2540768166