! Sonnet Data File
! From: emgraph Version : 14.52
! From Emgraph Data: Resonators_Unit_v1.1_1
! Data File Written: 05/17/2020 10:02:56
!< HDATE 05/15/2020 12:33:18
!< MDATE 05/16/2020 02:45:09
# GHZ S MA R 50.00000
3.000000000000000 9.9039701773e-4 -109.4046023148 0.9999908046215 -16.70359105139 0.9999908046215 -16.70359105139 9.9017384552e-4 -103.0045142933
!< P1 F=3.0 Eeff=(6.45855825 -1.0238e-5) Z0=(49.0102735 -2.1836e-5) R=0.0 C=0.0 
!< P2 F=3.0 Eeff=(6.45855825 -1.0238e-5) Z0=(49.0102735 -2.1836e-5) R=0.0 C=0.0 
3.020000000000000 9.9880374362e-4 -109.5018443408 0.9999900128830 -16.81530923145 0.9999900128830 -16.81530923145 9.9860292386e-4 -103.0110897493
3.040000000000000 0.0010073734592 -109.6039166002 0.9999892589323 -16.92703359542 0.9999892589323 -16.92703359542 0.0010071973914 -103.0214178543
3.060000000000000 0.0010161087752 -109.7106724874 0.9999885417995 -17.03876463716 0.9999885417995 -17.03876463716 0.0010159596968 -103.0353194299
3.080000000000000 0.0010250126303 -109.8219688497 0.9999878605074 -17.15050286126 0.9999878605074 -17.15050286126 0.0010248926005 -103.0526161263
3.100000000000000 0.0010340882890 -109.9376656012 0.9999872140742 -17.26224878223 0.9999872140742 -17.26224878223 0.0010339991931 -103.0731314462
3.120000000000000 0.0010433393547 -110.0576258943 0.9999866015149 -17.37400292541 0.9999866015149 -17.37400292541 0.0010432829084 -103.0966909387
3.140000000000000 0.0010527697828 -110.1817162733 0.9999860218414 -17.48576582790 0.9999860218414 -17.48576582790 0.0010527475362 -103.1231223693
3.160000000000000 0.0010623838952 -110.3098068076 0.9999854740635 -17.59753803958 0.9999854740635 -17.59753803958 0.0010623972382 -103.1522558703
3.180000000000000 0.0010721863970 -110.4417712091 0.9999849571896 -17.70932012420 0.9999849571896 -17.70932012420 0.0010722365630 -103.1839240712
3.200000000000000 0.0010821823930 -110.5774869329 0.9999844702274 -17.82111266057 0.9999844702274 -17.82111266057 0.0010822704641 -103.2179622115
3.220000000000000 0.0010923774068 -110.7168352643 0.9999840121845 -17.93291624375 0.9999840121845 -17.93291624375 0.0010925043187 -103.2542082368
3.240000000000000 0.0011027774014 -110.8597013918 0.9999835820691 -18.04473148644 0.9999835820691 -18.04473148644 0.0011029439479 -103.2925028801
3.260000000000000 0.0011133888011 -111.0059744681 0.9999831788906 -18.15655902039 0.9999831788906 -18.15655902039 0.0011135956393 -103.3326897288
3.280000000000000 0.0011242185157 -111.1555476608 0.9999828016604 -18.26839949796 0.9999828016604 -18.26839949796 0.0011244661709 -103.3746152790
3.300000000000000 0.0011352739665 -111.3083181921 0.9999824493923 -18.38025359374 0.9999824493923 -18.38025359374 0.0011355628375 -103.4181289779
3.320000000000000 0.0011465631151 -111.4641873696 0.9999821211033 -18.49212200639 0.9999821211033 -18.49212200639 0.0011468934789 -103.4630832561
3.340000000000000 0.0011580944936 -111.6230606097 0.9999818158140 -18.60400546051 0.9999818158140 -18.60400546051 0.0011584665110 -103.5093335499
3.360000000000000 0.0011698772389 -111.7848474528 0.9999815325492 -18.71590470879 0.9999815325492 -18.71590470879 0.0011702909596 -103.5567383149
3.380000000000000 0.0011819211289 -111.9494615719 0.9999812703386 -18.82782053415 0.9999812703386 -18.82782053415 0.0011823764965 -103.6051590321
3.400000000000000 0.0011942366222 -112.1168207761 0.9999810282170 -18.93975375229 0.9999810282170 -18.93975375229 0.0011947334800 -103.6544602065
3.420000000000000 0.0012068349016 -112.2868470082 0.9999808052253 -19.05170521422 0.9999808052253 -19.05170521422 0.0012073729975 -103.7045093602
3.440000000000000 0.0012197279214 -112.4594663378 0.9999806004103 -19.16367580918 0.9999806004103 -19.16367580918 0.0012203069133 -103.7551770192
3.460000000000000 0.0012329284589 -112.6346089508 0.9999804128258 -19.27566646768 0.9999804128258 -19.27566646768 0.0012335479203 -103.8063366960
3.480000000000000 0.0012464501705 -112.8122091345 0.9999802415325 -19.38767816493 0.9999802415325 -19.38767816493 0.0012471095956 -103.8578648678
3.500000000000000 0.0012603076536 -112.9922052612 0.9999800855986 -19.49971192444 0.9999800855986 -19.49971192444 0.0012610064629 -103.9096409512
3.520000000000000 0.0012745165135 -113.1745397672 0.9999799441004 -19.61176882206 0.9999799441004 -19.61176882206 0.0012752540590 -103.9615472736
3.540000000000000 0.0012890934375 -113.3591591314 0.9999798161222 -19.72384999032 0.9999798161222 -19.72384999032 0.0012898690083 -104.0134690424
3.560000000000000 0.0013040562755 -113.5460138511 0.9999797007566 -19.83595662320 0.9999797007566 -19.83595662320 0.0013048691031 -104.0652943117
3.580000000000000 0.0013194241289 -113.7350584162 0.9999795971052 -19.94808998133 0.9999795971052 -19.94808998133 0.0013202733922 -104.1169139485
3.600000000000000 0.0013352174479 -113.9262512832 0.9999795042784 -20.06025139774 0.9999795042784 -20.06025139774 0.0013361022788 -104.1682215964
3.620000000000000 0.0013514581389 -114.1195548467 0.9999794213955 -20.17244228409 0.9999794213955 -20.17244228409 0.0013523776277 -104.2191136392
3.640000000000000 0.0013681696828 -114.3149354120 0.9999793475851 -20.28466413761 0.9999793475851 -20.28466413761 0.0013691228831 -104.2694891649
3.660000000000000 0.0013853772655 -114.5123631657 0.9999792819849 -20.39691854868 0.9999792819849 -20.39691854868 0.0013863631994 -104.3192499281
3.680000000000000 0.0014031079219 -114.7118121471 0.9999792237419 -20.50920720923 0.9999792237419 -20.50920720923 0.0014041255851 -104.3683003143
3.700000000000000 0.0014213906959 -114.9132602191 0.9999791720119 -20.62153192199 0.9999791720119 -20.62153192199 0.0014224390627 -104.4165473044
3.720000000000000 0.0014402568169 -115.1166890392 0.9999791259599 -20.73389461075 0.9999791259599 -20.73389461075 0.0014413348449 -104.4639004399
3.740000000000000 0.0014597398968 -115.3220840313 0.9999790847594 -20.84629733176 0.9999790847594 -20.84629733176 0.0014608465314 -104.5102717907
3.760000000000000 0.0014798761482 -115.5294343571 0.9999790475919 -20.95874228634 0.9999790475919 -20.95874228634 0.0014810103276 -104.5555759231
3.780000000000000 0.0015007046284 -115.7387328891 0.9999790136472 -21.07123183497 0.9999790136472 -21.07123183497 0.0015018652875 -104.5997298717
3.800000000000000 0.0015222675112 -115.9499761840 0.9999789821219 -21.18376851300 0.9999789821219 -21.18376851300 0.0015234535860 -104.6426531124
3.820000000000000 0.0015446103916 -116.1631644567 0.9999789522192 -21.29635504821 0.9999789522192 -21.29635504821 0.0015458208228 -104.6842675394
3.840000000000000 0.0015677826274 -116.3783015559 0.9999789231477 -21.40899438043 0.9999789231477 -21.40899438043 0.0015690163639 -104.7244974446
3.860000000000000 0.0015918377219 -116.5953949415 0.9999788941205 -21.52168968368 0.9999788941205 -21.52168968368 0.0015930937243 -104.7632695019
3.880000000000000 0.0016168337570 -116.8144556625 0.9999788643538 -21.63444439101 0.9999788643538 -21.63444439101 0.0016181110002 -104.8005127545
3.900000000000000 0.0016428338799 -117.0354983378 0.9999788330651 -21.74726222250 0.9999788330651 -21.74726222250 0.0016441313555 -104.8361586084
3.920000000000000 0.0016699068555 -117.2585411386 0.9999787994717 -21.86014721703 0.9999787994717 -21.86014721703 0.0016712235737 -104.8701408303
3.940000000000000 0.0016981276923 -117.4836057739 0.9999787627882 -21.97310376822 0.9999787627882 -21.97310376822 0.0016994626830 -104.9023955521
3.960000000000000 0.0017275783546 -117.7107174788 0.9999787222237 -22.08613666533 0.9999787222237 -22.08613666533 0.0017289306682 -104.9328612827
3.980000000000000 0.0017583485749 -117.9399050064 0.9999786769791 -22.19925113991 0.9999786769791 -22.19925113991 0.0017597172820 -104.9614789266
4.000000000000000 0.0017905367837 -118.1712006244 0.9999786262429 -22.31245291912 0.9999786262429 -22.31245291912 0.0017919209738 -104.9881918131
4.020000000000000 0.0018242511760 -118.4046401170 0.9999785691871 -22.42574828697 0.9999785691871 -22.42574828697 0.0018256499555 -105.0129457340
4.040000000000000 0.0018596109398 -118.6402627926 0.9999785049616 -22.53914415474 0.9999785049616 -22.53914415474 0.0018610234286 -105.0356889943
4.060000000000000 0.0018967476750 -118.8781115004 0.9999784326884 -22.65264814234 0.9999784326884 -22.65264814234 0.0018981730016 -105.0563724762
4.080000000000000 0.0019358070381 -119.1182326550 0.9999783514537 -22.76626867267 0.9999783514537 -22.76626867267 0.0019372443333 -105.0749497180
4.100000000000001 0.0019769506570 -119.3606762743 0.9999782602992 -22.88001508131 0.9999782602992 -22.88001508131 0.0019783990455 -105.0913770123
4.120000000000000 0.0020203583666 -119.6054960300 0.9999781582113 -22.99389774470 0.9999781582113 -22.99389774470 0.0020218169565 -105.1056135250
4.140000000000001 0.0020662308328 -119.8527493170 0.9999780441079 -23.10792823049 0.9999780441079 -23.10792823049 0.0020676987025 -105.1176214400
4.160000000000000 0.0021147926428 -120.1024973436 0.9999779168231 -23.22211947466 0.9999779168231 -23.22211947466 0.0021162688245 -105.1273661333
4.180000000000001 0.0021662959636 -120.3548052500 0.9999777750875 -23.33648599110 0.9999777750875 -23.33648599110 0.0021677794239 -105.1348163837
4.200000000000000 0.0022210248937 -120.6097422593 0.9999776175053 -23.45104412097 0.9999776175053 -23.45104412097 0.0022225145090 -105.1399446263
4.220000000000001 0.0022793006655 -120.8673818720 0.9999774425248 -23.56581233072 0.9999774425248 -23.56581233072 0.0022807951928 -105.1427272586
4.240000000000000 0.0023414878996 -121.1278021141 0.9999772484033 -23.68081157039 0.9999772484033 -23.68081157039 0.0023429859414 -105.1431450111
4.260000000000001 0.0024080021681 -121.3910858520 0.9999770331619 -23.79606570685 0.9999770331619 -23.79606570685 0.0024095021292 -105.1411833963
4.280000000000000 0.0024793191974 -121.6573211951 0.9999767945297 -23.91160205096 0.9999767945297 -23.91160205096 0.0024808192329 -105.1368332565
4.300000000000001 0.0025559861403 -121.9266020080 0.9999765298729 -24.02745200321 0.9999765298729 -24.02745200321 0.0025574840928 -105.1300914348
4.320000000000000 0.0026386354823 -122.1990285655 0.9999762361043 -24.14365185028 0.9999762361043 -24.14365185028 0.0026401288056 -105.1209616021
4.340000000000000 0.0027280023288 -122.4747083926 0.9999759095665 -24.26024375518 0.9999759095665 -24.26024375518 0.0027294879942 -105.1094552822
4.360000000000000 0.0028249460729 -122.7537573468 0.9999755458809 -24.37727699828 0.9999755458809 -24.37727699828 0.0028264204553 -105.0955931353
4.380000000000000 0.0029304777950 -123.0363010186 0.9999751397487 -24.49480954665 0.9999751397487 -24.49480954665 0.0029319365318 -105.0794065750
4.400000000000000 0.0030457952463 -123.3224765589 0.9999746846865 -24.61291005770 0.9999746846865 -24.61291005770 0.0030472330629 -105.0609398279
4.420000000000000 0.0031723279817 -123.6124350780 0.9999741726721 -24.73166046417 0.9999741726721 -24.73166046417 0.0031737384735 -105.0402525827
4.440000000000000 0.0033117962536 -123.9063448252 0.9999735936601 -24.85115934719 0.9999735936601 -24.85115934719 0.0033131716109 -105.0174234374
4.460000000000000 0.0034662888219 -124.2043954457 0.9999729349144 -24.97152639275 0.9999729349144 -24.97152639275 0.0034676194809 -104.9925544426
4.480000000000000 0.0036383671714 -124.5068037458 0.9999721800693 -25.09290836062 0.9999721800693 -25.09290836062 0.0036396413647 -104.9657771724
4.500000000000000 0.0038295925130 -124.8360033896 0.9999712811122 -25.21535097127 0.9999712811122 -25.21535097127 0.0038304501574 -104.9601918447
!< P1 F=4.5 Eeff=(6.45849161 -1.639e-5) Z0=(49.0070835 -3.4626e-5) R=0.0 C=0.0 
!< P2 F=4.5 Eeff=(6.45849161 -1.639e-5) Z0=(49.0070835 -3.4626e-5) R=0.0 C=0.0 
4.520000000000000 0.0040487952315 -125.1257469956 0.9999702898094 -25.33949127288 0.9999702898094 -25.33949127288 0.0040499092637 -104.9072242753
4.540000000000000 0.0042962038595 -125.4429396161 0.9999690880308 -25.46521115874 0.9999690880308 -25.46521115874 0.0042972060375 -104.8759507031
4.560000000000000 0.0045799891800 -125.7658434726 0.9999676500650 -25.59302239982 0.9999676500650 -25.59302239982 0.0045808507760 -104.8438119377
4.580000000000000 0.0049087756612 -126.0950202918 0.9999659022546 -25.72341900223 0.9999659022546 -25.72341900223 0.0049094599605 -104.8113015960
4.600000000000001 0.0052941415989 -126.4312002401 0.9999637383544 -25.85706414991 0.9999637383544 -25.85706414991 0.0052946010813 -104.7790863746
4.620000000000000 0.0057520019856 -126.7753613152 0.9999610005004 -25.99486940923 0.9999610005004 -25.99486940923 0.0057521741874 -104.7480858993
4.640000000000001 0.0063048485069 -127.1288581529 0.9999574458084 -26.13812302783 0.9999574458084 -26.13812302783 0.0063046497480 -104.7196020138
4.660000000000000 0.0069855378660 -127.4936401175 0.9999526846978 -26.28870691935 0.9999526846978 -26.28870691935 0.0069848533638 -104.6955373748
4.680000000000001 0.0078440395681 -127.8726400669 0.9999460598262 -26.44948316648 0.9999460598262 -26.44948316648 0.0078427071199 -104.6787847451
4.700000000000000 0.0089602440831 -128.2705126588 0.9999363899056 -26.62502767539 0.9999363899056 -26.62502767539 0.0089580255386 -104.6739658521
4.720000000000001 0.0104702990391 -128.6951529697 0.9999213736513 -26.82313878414 0.9999213736513 -26.82313878414 0.0104668266694 -104.6889505802
4.740000000000000 0.0126267030207 -129.1611624685 0.9998960198451 -27.05827982470 0.9998960198451 -27.05827982470 0.0126213686050 -104.7383235406
4.760000000000001 0.0159563455815 -129.6989659045 0.9998477439186 -27.36063366469 0.9998477439186 -27.36063366469 0.0159480388442 -104.8525015760
4.780000000000000 0.0217721460451 -130.3843335420 0.9997366514608 -27.80542189481 0.9997366514608 -27.80542189481 0.0217585053537 -105.1072566327
4.800000000000001 0.0345092729044 -131.4732532212 0.9993738505995 -28.64684656120 0.9993738505995 -28.64684656120 0.0344837086378 -105.7585884766
4.820000000000000 0.0845325229353 -134.7217928358 0.9963538587984 -31.62880009183 0.9963538587984 -31.62880009183 0.0844594897388 -108.5625878429
4.830000000000000 0.3050098584672 -147.9010947028 0.9517002905989 -44.58845857884 0.9517002905988 -44.58845857885 0.3047264590743 -121.5170256944
!< P1 F=4.83 Eeff=(6.45847706 -1.7965e-5) Z0=(49.0061932 -3.7428e-5) R=0.0 C=0.0 
!< P2 F=4.83 Eeff=(6.45847706 -1.7965e-5) Z0=(49.0061932 -3.7428e-5) R=0.0 C=0.0 
4.830100000000001 0.3128953364105 -148.3813927292 0.9491038429098 -45.06383606286 0.9491038429098 -45.06383606286 0.3126044030596 -121.9950663022
4.830200000000000 0.3211756912936 -148.8870827620 0.9462980630088 -45.56438984320 0.9462980630088 -45.56438984320 0.3208768460706 -122.4984987294
4.830300000000000 0.3298791305310 -149.4201563429 0.9432605505369 -46.09209065385 0.9432605505369 -46.09209065385 0.3295719684372 -123.0293145325
4.830400000000000 0.3390363568115 -149.9828087855 0.9399659364019 -46.64911154335 0.9399659364019 -46.64911154335 0.3387204433920 -123.5897090252
4.830500000000001 0.3486807765495 -150.5774640414 0.9363854201632 -47.23785131160 0.9363854201632 -47.23785131160 0.3483556452901 -124.1821061590
4.830600000000000 0.3588487429672 -151.2068032262 0.9324862245196 -47.86096255239 0.9324862245196 -47.86096255239 0.3585138924552 -124.8091870494
4.830700000000000 0.3695798108983 -151.8737971069 0.9282309521974 -48.52138355740 0.9282309521974 -48.52138355740 0.3692347017359 -125.4739224636
4.830800000000000 0.3809169985522 -152.5817431025 0.9235768265231 -49.22237460649 0.9235768265231 -49.22237460649 0.3805610500140 -126.1796098205
4.830900000000001 0.3929070485449 -153.3343074011 0.9184747934393 -49.96755921657 0.9184747934393 -49.96755921657 0.3925396349804 -126.9299153082
4.831000000000000 0.4056006763144 -154.1355728440 0.9128684586384 -50.76097095625 0.9128684586384 -50.76097095625 0.4052211233050 -127.7289217680
4.831100000000000 0.4190527881224 -154.9900932544 0.9066928289622 -51.60710644625 0.9066928289622 -51.60710644625 0.4186603684211 -128.5811830233
4.831200000000000 0.4333226425077 -155.9029548774 0.8998728222954 -52.51098513664 0.8998728222954 -52.51098513664 0.4329165718136 -129.4917853189
4.831300000000001 0.4484739174500 -156.8798455255 0.8923215052727 -53.47821635513 0.8923215052727 -53.47821635513 0.4480533501050 -130.4664164675
4.831400000000000 0.4645746293832 -157.9271318585 0.8839380137452 -54.51507391142 0.8839380137452 -54.51507391142 0.4641386541301 -131.5114431290
4.831500000000000 0.4816968280659 -159.0519448915 0.8746051082574 -55.62857816106 0.8746051082574 -55.62857816106 0.4812444640780 -132.6339963182
4.831600000000000 0.4999159611668 -160.2622732545 0.8641863176111 -56.82658478077 0.8641863176111 -56.82658478077 0.4994461546615 -133.8420646653
4.831700000000001 0.5193097619091 -161.5670627873 0.8525226309992 -58.11787845063 0.8525226309992 -58.11787845063 0.5188213837961 -135.1445940101
4.831800000000000 0.5399564595688 -162.9763195602 0.8394287181122 -59.51226797631 0.8394287181122 -59.51226797631 0.5394483047742 -136.5515904230
4.831900000000000 0.5619320435437 -164.5012111301 0.8246886947192 -61.02067683424 0.8246886947192 -61.02067683424 0.5614028329089 -138.0742214607
4.832000000000001 0.5429056121593 -163.1828255352 0.8374999004502 -59.71423784517 0.8374999004502 -59.71423784517 0.5423947086669 -136.7529831176
!< P1 F=4.832 Eeff=(6.45847697 -1.7974e-5) Z0=(49.0061875 -3.7443e-5) R=0.0 C=0.0 
!< P2 F=4.832 Eeff=(6.45847697 -1.7974e-5) Z0=(49.0061875 -3.7443e-5) R=0.0 C=0.0 
4.832100000000001 0.6101366441664 -167.9488976783 0.7892262289334 -64.42924661535 0.7892262289334 -64.42924661535 0.6095612220842 -141.5173864283
4.832200000000000 0.6364607437600 -169.9005128122 0.7678773883666 -66.35733974843 0.7678773883666 -66.35733974843 0.6358600706241 -143.4667405137
4.832300000000000 0.6642846721973 -172.0253730807 0.7436214571592 -68.45521338866 0.7436214571592 -68.45521338866 0.6636572962145 -145.5893395617
4.832400000000001 0.6935684946052 -174.3409683780 0.7160251467839 -70.73948067742 0.7160251467839 -70.73948067742 0.6929129987002 -147.9026734665
4.832500000000000 0.6682439145161 -172.3368274395 0.7400196955312 -68.76027045133 0.7400196955312 -68.76027045133 0.6676128311785 -145.8956811526
!< P1 F=4.8325 Eeff=(6.45847695 -1.7977e-5) Z0=(49.0061861 -3.7449e-5) R=0.0 C=0.0 
!< P2 F=4.8325 Eeff=(6.45847695 -1.7977e-5) Z0=(49.0061861 -3.7449e-5) R=0.0 C=0.0 
4.832600000000000 0.7560067342999 -179.6176062758 0.6488478267872 -75.93515207058 0.6488478267872 -75.93515207058 0.7552912173571 -153.1747880630
4.832700000000000 0.7886572075089 177.38520079486 0.6082035030739 -78.87857084449 0.6082035030739 -78.87857084449 0.7879102615221 -156.1697190836
4.832800000000001 0.8217026973760 174.12724586012 0.5621401131673 -82.06937892551 0.5621401131673 -82.06937892551 0.8209239040941 -159.4254119377
4.832900000000000 0.8545146463141 170.59683848220 0.5101790584059 -85.51341442602 0.5101790584059 -85.51341442602 0.8537041828232 -162.9535570628
4.833000000000000 0.8262673108696 173.65243926390 0.5553215439809 -82.53124241480 0.5553215439809 -82.53124241480 0.8254842295741 -159.8951071100
!< P1 F=4.833 Eeff=(6.45847693 -1.7979e-5) Z0=(49.0061847 -3.7452e-5) R=0.0 C=0.0 
!< P2 F=4.833 Eeff=(6.45847693 -1.7979e-5) Z0=(49.0061847 -3.7452e-5) R=0.0 C=0.0 
4.833100000000000 0.9159781326758 162.70570544574 0.3873459605857 -93.12661314655 0.3873459605857 -93.12661314655 0.9151081478663 -170.8401650777
4.833200000000001 0.9424697880597 158.36338827993 0.3164757828217 -97.22280226198 0.3164757828217 -97.22280226198 0.9415740105404 -175.1802194747
4.833300000000000 0.9645225217523 153.79028070903 0.2398926165950 -101.3782854112 0.2398926165950 -101.3782854112 0.9636051377725 -179.7510641049
4.833400000000000 0.9809587712883 149.02977691812 0.1585825859240 -105.2725946463 0.1585825859240 -105.2725946463 0.9800250968050 175.49069521699
4.833500000000000 0.9671540877980 153.13896040120 0.2289093420376 -101.9456062091 0.2289093420376 -101.9456062091 0.9662342441904 179.60272651396
!< P1 F=4.8335 Eeff=(6.45847691 -1.7982e-5) Z0=(49.0061833 -3.7455e-5) R=0.0 C=0.0 
!< P2 F=4.8335 Eeff=(6.45847691 -1.7982e-5) Z0=(49.0061833 -3.7455e-5) R=0.0 C=0.0 
4.833600000000001 0.9827315220877 148.35651681839 0.1470458019061 -105.7448520655 0.1470458019061 -105.7448520655 0.9817962040024 174.82254571951
!< P1 F=4.8336 Eeff=(6.4584769 -1.7982e-5) Z0=(49.0061831 -3.7458e-5) R=0.0 C=0.0 
!< P2 F=4.8336 Eeff=(6.4584769 -1.7982e-5) Z0=(49.0061831 -3.7458e-5) R=0.0 C=0.0 
4.833700000000000 0.9916016209011 143.45448848000 0.0622421041009 -106.9417927869 0.0622421041009 -106.9417927869 0.9906571956572 169.92278000667
!< P1 F=4.8337 Eeff=(6.4584769 -1.7983e-5) Z0=(49.0061828 -3.7458e-5) R=0.0 C=0.0 
!< P2 F=4.8337 Eeff=(6.4584769 -1.7983e-5) Z0=(49.0061828 -3.7458e-5) R=0.0 C=0.0 
4.833800000000000 0.9767816588716 129.38270549347 0.1827608692663 50.480873983053 0.1827608692663 50.480873983053 0.9758493387632 155.85267796314
4.833900000000000 0.9585775095680 124.67034940972 0.2628406215846 46.447835895972 0.2628406215846 46.447835895972 0.9576619212469 151.14258585199
4.834000000000001 0.9746193830688 128.71676893885 0.1941041729045 49.946974955259 0.1941041729045 49.946974955262 0.9736891688715 155.19185130286
!< P1 F=4.834 Eeff=(6.45847689 -1.7984e-5) Z0=(49.0061819 -3.7461e-5) R=0.0 C=0.0 
!< P2 F=4.834 Eeff=(6.45847689 -1.7984e-5) Z0=(49.0061819 -3.7461e-5) R=0.0 C=0.0 
4.834100000000000 0.9075034307146 115.88858740278 0.4069694539810 38.234445586511 0.4069694539810 38.234445586511 0.9066354063962 142.36535230606
4.834200000000000 0.8770578472916 111.88303250612 0.4697445239612 34.375005508527 0.4697445239612 34.375005508527 0.8762183544262 138.36206189779
4.834300000000001 0.8448640732977 108.15400935971 0.5261313255213 30.751561034250 0.5261313255213 30.751561034250 0.8440548270995 134.63530341171
4.834400000000000 0.8118755993019 104.70212836916 0.5763481916665 27.379648749808 0.5763481916665 27.379648749808 0.8110974046024 131.18568725339
4.834500000000000 0.8403338001857 107.65712466856 0.5334310639267 30.269484097118 0.5334310639267 30.269484097117 0.8395289283864 134.14352746435
!< P1 F=4.8345 Eeff=(6.45847686 -1.7987e-5) Z0=(49.0061805 -3.7464e-5) R=0.0 C=0.0 
!< P2 F=4.8345 Eeff=(6.45847686 -1.7987e-5) Z0=(49.0061805 -3.7464e-5) R=0.0 C=0.0 
4.834600000000000 0.7463808002234 98.594281104668 0.6599712656503 21.385195443907 0.6599712656503 21.385195443907 0.7456643783311 125.08237016908
4.834700000000001 0.7148620810776 95.908918956112 0.6944193032115 18.741609462783 0.6944193032115 18.741609462783 0.7141754312646 122.39927336845
4.834800000000000 0.6845730920088 93.445774441137 0.7246777424663 16.313569588389 0.7246777424663 16.313569588389 0.6839150745357 119.93839437328
4.834900000000000 0.6556793563701 91.186374059079 0.7512572812681 14.084124739776 0.7512572812681 14.084124739776 0.6550486698205 117.68125968291
4.835000000000000 0.6804842173244 93.117542176149 0.7285689657244 15.992203742940 0.7285689657244 15.992203742941 0.6798301573446 119.61527052503
!< P1 F=4.835 Eeff=(6.45847684 -1.7989e-5) Z0=(49.0061791 -3.747e-5) R=0.0 C=0.0 
!< P2 F=4.835 Eeff=(6.45847684 -1.7989e-5) Z0=(49.0061791 -3.747e-5) R=0.0 C=0.0 
4.835100000000001 0.6023543559310 87.207332362486 0.7952026702298 10.153626261751 0.7952026702298 10.153626261751 0.6017741492426 113.70674988529
4.835200000000000 0.5779311941900 85.454480020426 0.8133571943098 8.4207697200175 0.8133571943098 8.4207697200175 0.5773741226495 111.95616375049
4.835300000000000 0.5549509590517 83.839368762167 0.8294117566244 6.8234687282300 0.8294117566244 6.8234687282300 0.5544156636620 110.34331887134
4.835400000000000 0.5333516623371 82.348640068439 0.8436454230760 5.3487260984560 0.8436454230760 5.3487260984560 0.5328368410308 108.85485672857
4.835500000000001 0.5130611311461 80.970239133373 0.8562986862737 3.9847728691128 0.8562986862737 3.9847728691128 0.5125655487887 107.47872251628
4.835600000000000 0.4940022466078 79.693339354647 0.8675782195509 2.7210115293204 0.8675782195509 2.7210115293204 0.4935247399711 106.20408963216
4.835700000000000 0.4760965655228 78.508247360655 0.8776613913306 1.5479344648217 0.8776613913306 1.5479344648217 0.4756360447727 105.02126470458
4.835800000000000 0.4592667515580 77.406300548710 0.8867003765628 0.4570312798481 0.8867003765628 0.4570312798481 0.4588221993935 103.92158513086
4.835900000000001 0.4434381450993 76.379764629309 0.8948258027101 -0.559306411438 0.8948258027101 -0.559306411438 0.4430086143672 102.89731662148
4.836000000000000 0.4285397196694 75.421735618348 0.9021499263350 -1.507877546093 0.9021499263350 -1.507877546093 0.4281243300431 101.94155519233
4.836100000000000 0.4145046083448 74.526048691451 0.9087693679453 -2.394758611117 0.9087693679453 -2.394758611117 0.4141025424808 101.04813601903
4.836200000000001 0.4012703340482 73.687195003333 0.9147674477242 -3.225383628512 0.9147674477242 -3.225383628512 0.4008808335043 100.21155025629
4.836300000000000 0.3887788402798 72.900246754670 0.9202161698725 -4.004616599589 0.9202161698725 -4.004616599589 0.3884012013893 99.426870104768
4.836400000000000 0.3769763912232 72.160790295087 0.9251779028461 -4.736816443244 0.9251779028461 -4.736816443244 0.3766099610516 98.689681914088
4.836500000000000 0.3658133899181 71.464866775806 0.9297067994338 -5.425894788014 0.9297067994338 -5.425894788014 0.3654575623816 97.996026835464
4.836600000000001 0.3552441485075 70.808919726991 0.9338499960063 -6.075367148953 0.9338499960063 -6.075367148953 0.3548983607016 97.342348399052
4.836700000000000 0.3452266340041 70.189748885433 0.9376486252938 -6.688398094201 0.9376486252938 -6.688398094201 0.3448903627665 96.725446341635
4.836800000000000 0.3357222054540 69.604469600210 0.9411386722267 -7.267841021086 0.9411386722267 -7.267841021086 0.3353949641715 96.142436012282
4.836900000000000 0.3266953530146 69.050477178006 0.9443516979477 -7.816273140920 0.9443516979477 -7.816273140920 0.3263766886733 95.590712717670
4.837000000000001 0.3181134456823 68.525415578131 0.9473154531883 -8.336026231819 0.9473154531883 -8.336026231819 0.3178029361530 95.067920417103
4.837100000000000 0.3099464917587 68.027149922720 0.9500543988072 -8.829213670242 0.9500543988072 -8.829213670242 0.3096437433072 94.571924232705
4.837200000000000 0.3021669143226 67.553742346110 0.9525901483800 -9.297754199982 0.9525901483800 -9.297754199982 0.3018715593298 94.100786298809
4.837300000000000 0.2947493427246 67.103430759968 0.9549418452935 -9.743392846411 0.9549418452935 -9.743392846411 0.2944610376033 93.652744527071
4.837400000000001 0.2876704202904 66.674610164478 0.9571264847212 -10.16771933574 0.9571264847212 -10.16771933574 0.2873888435823 93.226193917669
4.837500000000000 0.2809086278783 66.265816179885 0.9591591891570 -10.57218433471 0.9591591891570 -10.57218433471 0.2806334785171 92.819670090839
4.837600000000000 0.2744441225936 65.875710516339 0.9610534447362 -10.95811378654 0.9610534447362 -10.95811378654 0.2741751183201 92.431834756724
4.837700000000000 0.2682585907701 65.503068135138 0.9628213043945 -11.32672158345 0.9628213043945 -11.32672158345 0.2679954666859 92.061462876615
4.837800000000001 0.2623351142249 65.146765888459 0.9644735629171 -11.67912078476 0.9644735629171 -11.67912078476 0.2620776214720 91.707431302680
4.837900000000000 0.2566580487616 64.805772451027 0.9660199081183 -12.01633356252 0.9660199081183 -12.01633356252 0.2564059533171 91.368708709635
4.838000000000000 0.2512129139033 64.479139383304 0.9674690517040 -12.33930003234 0.9674690517040 -12.33930003234 0.2509659954775 91.044346657937
4.838100000000001 0.2459862928738 64.165993186292 0.9688288428029 -12.64888610684 0.9688288428029 -12.64888610684 0.2457443439032 90.733471648577
4.838200000000001 0.2409657418980 63.865528226480 0.9701063666838 -12.94589049075 0.9701063666838 -12.94589049075 0.2407285666239 90.435278048039
4.838300000000000 0.2361397079554 63.577000425496 0.9713080307811 -13.23105092149 0.9713080307811 -13.23105092149 0.2359071215802 90.149021777942
4.838400000000000 0.2314974541847 63.299721622897 0.9724396398214 -13.50504974539 0.9724396398214 -13.50504974539 0.2312692820987 89.874014677835
4.838500000000001 0.2270289922049 63.033054532168 0.9735064615735 -13.76851890804 0.9735064615735 -13.76851890804 0.2268050692772 89.609619461194
4.838600000000000 0.2227250206839 62.776408220362 0.9745132845109 -14.02204442748 0.9745132845109 -14.02204442748 0.2225051906111 89.355245195066
4.838700000000000 0.2185768695442 62.529234050791 0.9754644684853 -14.26617040993 0.9754644684853 -14.26617040993 0.2183609842523 89.110343242754
4.838800000000000 0.2145764492571 62.291022035503 0.9763639893484 -14.50140266029 0.9763639893484 -14.50140266029 0.2143643683509 88.874403616298
4.838900000000001 0.2107162047257 62.061297551542 0.9772154783191 -14.72821193344 0.9772154783191 -14.72821193344 0.2105077949826 88.646951692736
4.839000000000000 0.2069890733112 61.839618379739 0.9780222567850 -14.94703686606 0.9780222567850 -14.94703686606 0.2067842082138 88.427545252889
4.839100000000000 0.2033884465967 61.625572031122 0.9787873671210 -15.15828662463 0.9787873671210 -15.15828662463 0.2031870059022 88.215771807776
4.839200000000000 0.1999081355265 61.418773328835 0.9795136000347 -15.36234330014 0.9795136000347 -15.36234330014 0.1997100048690 88.011246180536
4.839300000000001 0.1965423385957 61.218862218568 0.9802035188705 -15.55956407705 0.9802035188705 -15.55956407705 0.1963474091187 87.813608316849
4.839400000000000 0.1932856127956 61.025501782878 0.9808594812493 -15.75028320036 0.9808594812493 -15.75028320036 0.1930937808118 87.622521299265
4.839500000000000 0.1901328470528 60.838376438116 0.9814836583686 -15.93481376207 0.9814836583686 -15.93481376207 0.1899440137291 87.437669544126
4.839600000000000 0.1870792379250 60.657190294746 0.9820780522443 -16.11344932567 0.9820780522443 -16.11344932567 0.1868933089909 87.258757161889
4.839700000000001 0.1841202673417 60.481665664775 0.9826445111390 -16.28646540539 0.9826445111390 -16.28646540539 0.1839371528181 87.085506464552